# vtk DataFile Version 2.0
sampleSurface
ASCII
DATASET POLYDATA
POINTS 17673 float
0.04 -0.184464 -0.06 0.04 -0.184464 -0.0559273 0.04 -0.188453 -0.0559273 0.04 -0.188453
-0.06 0.04 -0.180475 -0.06 0.04 -0.180475 -0.0559273 0.04 -0.176486 -0.06
0.04 -0.176486 -0.0559273 0.04 -0.172497 -0.06 0.04 -0.172497 -0.0559273 0.04
-0.168508 -0.06 0.04 -0.168508 -0.0559273 0.04 -0.164519 -0.06 0.04 -0.164519
-0.0559273 0.04 -0.16053 -0.06 0.04 -0.16053 -0.0559273 0.04 -0.156541 -0.06
0.04 -0.156541 -0.0559273 0.04 -0.152552 -0.06 0.04 -0.152552 -0.0559273 0.04
-0.148563 -0.06 0.04 -0.148563 -0.0559273 0.04 -0.144574 -0.06 0.04 -0.144574
-0.0559273 0.04 -0.140586 -0.06 0.04 -0.140586 -0.0559273 0.04 -0.136596 -0.06
0.04 -0.136596 -0.0559273 0.04 -0.132607 -0.06 0.04 -0.132607 -0.0559273 0.04
-0.128619 -0.06 0.04 -0.128619 -0.0559273 0.04 -0.12463 -0.06 0.04 -0.12463
-0.0559273 0.04 -0.120641 -0.06 0.04 -0.120641 -0.0559273 0.04 -0.116652 -0.06
0.04 -0.116652 -0.0559273 0.04 -0.112663 -0.06 0.04 -0.112663 -0.0559273 0.04
-0.108674 -0.06 0.04 -0.108674 -0.0559273 0.04 -0.104685 -0.06 0.04 -0.104685
-0.0559273 0.04 -0.100696 -0.06 0.04 -0.100696 -0.0559273 0.04 -0.0967069 -0.06
0.04 -0.0967069 -0.0559273 0.04 -0.0927179 -0.06 0.04 -0.0927179 -0.0559273 0.04
-0.088739 -0.06 0.04 -0.0887391 -0.0559273 0.04 -0.0847775 -0.06 0.04 -0.0847775
-0.0559273 0.04 -0.0809835 -0.06 0.04 -0.0809835 -0.0559273 0.04 -0.0773956 -0.06
0.04 -0.0773956 -0.0559273 0.04 -0.0739968 -0.06 0.04 -0.0739968 -0.0559273 0.04
-0.0707629 -0.06 0.04 -0.0707629 -0.0559273 0.04 -0.0676784 -0.06 0.04 -0.0676784
-0.0559273 0.04 -0.0647301 -0.06 0.04 -0.0647301 -0.0559273 0.04 -0.0619431 -0.06
0.04 -0.0619431 -0.0559273 0.04 -0.0593321 -0.06 0.04 -0.0593321 -0.0559273 0.04
-0.0568459 -0.06 0.04 -0.0568459 -0.0559273 0.04 -0.0544545 -0.06 0.04 -0.0544545
-0.0559273 0.04 -0.0521732 -0.06 0.04 -0.0521732 -0.0559273 0.04 -0.0500374 -0.06
0.04 -0.0500374 -0.0559273 0.04 -0.0480123 -0.06 0.04 -0.0480123 -0.0559273 0.04
-0.046084 -0.06 0.04 -0.046084 -0.0559273 0.04 -0.0442254 -0.06 0.04 -0.0442254
-0.0559273 0.04 -0.0424486 -0.06 0.04 -0.0424486 -0.0559273 0.04 -0.0407648 -0.06
0.04 -0.0407648 -0.0559273 0.04 -0.0391821 -0.06 0.04 -0.0391821 -0.0559273 0.04
-0.0376993 -0.06 0.04 -0.0376993 -0.0559273 0.04 -0.0362943 -0.06 0.04 -0.0362943
-0.0559273 0.04 -0.0349524 -0.06 0.04 -0.0349524 -0.0559273 0.04 -0.0336651 -0.06
0.04 -0.0336651 -0.0559273 0.04 -0.0324289 -0.06 0.04 -0.0324289 -0.0559273 0.04
-0.0312728 -0.06 0.04 -0.0312728 -0.0559273 0.04 -0.0301752 -0.06 0.04 -0.0301752
-0.0559273 0.04 -0.0291177 -0.06 0.04 -0.0291177 -0.0559273 0.04 -0.0281145 -0.06
0.04 -0.0281145 -0.0559273 0.04 -0.0271661 -0.06 0.04 -0.0271661 -0.0559273 0.04
-0.0262754 -0.06 0.04 -0.0262754 -0.0559273 0.04 -0.02543 -0.06 0.04 -0.02543
-0.0559273 0.04 -0.0246256 -0.06 0.04 -0.0246256 -0.0559273 0.04 -0.0238573 -0.06
0.04 -0.0238573 -0.0559273 0.04 -0.023094 -0.0559273 0.04 -0.023094 -0.06 0.04
-0.184464 -0.0519514 0.04 -0.188453 -0.0519514 0.04 -0.180475 -0.0519514 0.04 -0.176486
-0.0519514 0.04 -0.172497 -0.0519514 0.04 -0.168508 -0.0519514 0.04 -0.164519 -0.0519514
0.04 -0.16053 -0.0519514 0.04 -0.156541 -0.0519514 0.04 -0.152552 -0.0519514 0.04
-0.148563 -0.0519514 0.04 -0.144574 -0.0519514 0.04 -0.140586 -0.0519514 0.04 -0.136596
-0.0519514 0.04 -0.132607 -0.0519514 0.04 -0.128619 -0.0519514 0.04 -0.12463 -0.0519514
0.04 -0.120641 -0.0519514 0.04 -0.116652 -0.0519514 0.04 -0.112663 -0.0519514 0.04
-0.108674 -0.0519514 0.04 -0.104685 -0.0519514 0.04 -0.100696 -0.0519514 0.04 -0.0967069
-0.0519514 0.04 -0.0927179 -0.0519514 0.04 -0.088739 -0.0519514 0.04 -0.0847775 -0.0519514
0.04 -0.0809835 -0.0519514 0.04 -0.0773956 -0.0519514 0.04 -0.0739968 -0.0519514 0.04
-0.0707629 -0.0519514 0.04 -0.0676784 -0.0519514 0.04 -0.0647301 -0.0519514 0.04 -0.0619431
-0.0519514 0.04 -0.0593321 -0.0519514 0.04 -0.0568459 -0.0519514 0.04 -0.0544545 -0.0519514
0.04 -0.0521732 -0.0519514 0.04 -0.0500374 -0.0519514 0.04 -0.0480123 -0.0519514 0.04
-0.046084 -0.0519514 0.04 -0.0442254 -0.0519514 0.04 -0.0424486 -0.0519514 0.04 -0.0407648
-0.0519514 0.04 -0.0391821 -0.0519514 0.04 -0.0376993 -0.0519514 0.04 -0.0362943 -0.0519514
0.04 -0.0349524 -0.0519514 0.04 -0.0336651 -0.0519514 0.04 -0.0324289 -0.0519514 0.04
-0.0312728 -0.0519514 0.04 -0.0301752 -0.0519514 0.04 -0.0291177 -0.0519514 0.04 -0.0281145
-0.0519514 0.04 -0.0271661 -0.0519514 0.04 -0.0262754 -0.0519514 0.04 -0.02543 -0.0519514
0.04 -0.0246256 -0.0519514 0.04 -0.0238573 -0.0519514 0.04 -0.023094 -0.0519514 0.04
-0.184464 -0.0479754 0.04 -0.188453 -0.0479754 0.04 -0.180475 -0.0479754 0.04 -0.176486
-0.0479754 0.04 -0.172497 -0.0479754 0.04 -0.168508 -0.0479754 0.04 -0.164519 -0.0479754
0.04 -0.16053 -0.0479754 0.04 -0.156541 -0.0479754 0.04 -0.152552 -0.0479754 0.04
-0.148563 -0.0479754 0.04 -0.144574 -0.0479754 0.04 -0.140586 -0.0479754 0.04 -0.136596
-0.0479754 0.04 -0.132607 -0.0479754 0.04 -0.128619 -0.0479754 0.04 -0.12463 -0.0479754
0.04 -0.120641 -0.0479754 0.04 -0.116652 -0.0479754 0.04 -0.112663 -0.0479754 0.04
-0.108674 -0.0479754 0.04 -0.104685 -0.0479754 0.04 -0.100696 -0.0479754 0.04 -0.0967069
-0.0479754 0.04 -0.0927179 -0.0479754 0.04 -0.0887391 -0.0479754 0.04 -0.0847775 -0.0479754
0.04 -0.0809835 -0.0479754 0.04 -0.0773956 -0.0479754 0.04 -0.0739968 -0.0479754 0.04
-0.0707629 -0.0479754 0.04 -0.0676784 -0.0479754 0.04 -0.0647301 -0.0479754 0.04 -0.0619431
-0.0479754 0.04 -0.0593321 -0.0479754 0.04 -0.0568459 -0.0479754 0.04 -0.0544545 -0.0479754
0.04 -0.0521732 -0.0479754 0.04 -0.0500374 -0.0479754 0.04 -0.0480123 -0.0479754 0.04
-0.046084 -0.0479754 0.04 -0.0442254 -0.0479754 0.04 -0.0424486 -0.0479754 0.04 -0.0407648
-0.0479754 0.04 -0.0391821 -0.0479754 0.04 -0.0376993 -0.0479754 0.04 -0.0362943 -0.0479754
0.04 -0.0349524 -0.0479754 0.04 -0.0336651 -0.0479754 0.04 -0.0324289 -0.0479754 0.04
-0.0312728 -0.0479754 0.04 -0.0301752 -0.0479754 0.04 -0.0291177 -0.0479754 0.04 -0.0281145
-0.0479754 0.04 -0.0271661 -0.0479754 0.04 -0.0262754 -0.0479754 0.04 -0.02543 -0.0479754
0.04 -0.0246256 -0.0479754 0.04 -0.0238573 -0.0479754 0.04 -0.023094 -0.0479754 0.04
-0.184464 -0.0439994 0.04 -0.188453 -0.0439994 0.04 -0.180475 -0.0439994 0.04 -0.176486
-0.0439994 0.04 -0.172497 -0.0439994 0.04 -0.168508 -0.0439994 0.04 -0.164519 -0.0439994
0.04 -0.16053 -0.0439994 0.04 -0.156541 -0.0439994 0.04 -0.152552 -0.0439994 0.04
-0.148563 -0.0439994 0.04 -0.144574 -0.0439994 0.04 -0.140586 -0.0439994 0.04 -0.136596
-0.0439994 0.04 -0.132607 -0.0439994 0.04 -0.128619 -0.0439994 0.04 -0.12463 -0.0439994
0.04 -0.120641 -0.0439994 0.04 -0.116652 -0.0439994 0.04 -0.112663 -0.0439994 0.04
-0.108674 -0.0439994 0.04 -0.104685 -0.0439994 0.04 -0.100696 -0.0439994 0.04 -0.0967069
-0.0439994 0.04 -0.0927179 -0.0439994 0.04 -0.0887391 -0.0439994 0.04 -0.0847775 -0.0439994
0.04 -0.0809835 -0.0439994 0.04 -0.0773956 -0.0439994 0.04 -0.0739968 -0.0439994 0.04
-0.0707629 -0.0439994 0.04 -0.0676784 -0.0439994 0.04 -0.0647301 -0.0439994 0.04 -0.0619431
-0.0439994 0.04 -0.0593321 -0.0439994 0.04 -0.0568459 -0.0439994 0.04 -0.0544545 -0.0439994
0.04 -0.0521732 -0.0439994 0.04 -0.0500374 -0.0439994 0.04 -0.0480123 -0.0439994 0.04
-0.046084 -0.0439994 0.04 -0.0442254 -0.0439994 0.04 -0.0424486 -0.0439994 0.04 -0.0407648
-0.0439994 0.04 -0.0391821 -0.0439994 0.04 -0.0376993 -0.0439994 0.04 -0.0362943 -0.0439994
0.04 -0.0349524 -0.0439994 0.04 -0.0336651 -0.0439994 0.04 -0.0324289 -0.0439994 0.04
-0.0312728 -0.0439994 0.04 -0.0301752 -0.0439994 0.04 -0.0291177 -0.0439994 0.04 -0.0281145
-0.0439994 0.04 -0.0271661 -0.0439994 0.04 -0.0262754 -0.0439994 0.04 -0.02543 -0.0439994
0.04 -0.0246256 -0.0439994 0.04 -0.0238573 -0.0439994 0.04 -0.023094 -0.0439994 0.04
-0.184464 -0.0400235 0.04 -0.188453 -0.0400235 0.04 -0.180475 -0.0400235 0.04 -0.176486
-0.0400235 0.04 -0.172497 -0.0400235 0.04 -0.168508 -0.0400235 0.04 -0.164519 -0.0400235
0.04 -0.16053 -0.0400235 0.04 -0.156541 -0.0400235 0.04 -0.152552 -0.0400235 0.04
-0.148563 -0.0400235 0.04 -0.144574 -0.0400235 0.04 -0.140586 -0.0400235 0.04 -0.136596
-0.0400235 0.04 -0.132607 -0.0400235 0.04 -0.128619 -0.0400235 0.04 -0.12463 -0.0400235
0.04 -0.120641 -0.0400235 0.04 -0.116652 -0.0400235 0.04 -0.112663 -0.0400235 0.04
-0.108674 -0.0400235 0.04 -0.104685 -0.0400235 0.04 -0.100696 -0.0400235 0.04 -0.0967069
-0.0400235 0.04 -0.0927179 -0.0400235 0.04 -0.088739 -0.0400235 0.04 -0.0847775 -0.0400235
0.04 -0.0809835 -0.0400235 0.04 -0.0773956 -0.0400235 0.04 -0.0739968 -0.0400235 0.04
-0.0707629 -0.0400235 0.04 -0.0676784 -0.0400235 0.04 -0.0647301 -0.0400235 0.04 -0.0619431
-0.0400235 0.04 -0.0593321 -0.0400235 0.04 -0.0568459 -0.0400235 0.04 -0.0544545 -0.0400235
0.04 -0.0521732 -0.0400235 0.04 -0.0500374 -0.0400235 0.04 -0.0480123 -0.0400235 0.04
-0.046084 -0.0400235 0.04 -0.0442254 -0.0400235 0.04 -0.0424486 -0.0400235 0.04 -0.0407648
-0.0400235 0.04 -0.0391821 -0.0400235 0.04 -0.0376993 -0.0400235 0.04 -0.0362943 -0.0400235
0.04 -0.0349524 -0.0400235 0.04 -0.0336651 -0.0400235 0.04 -0.0324289 -0.0400235 0.04
-0.0312728 -0.0400235 0.04 -0.0301752 -0.0400235 0.04 -0.0291177 -0.0400235 0.04 -0.0281145
-0.0400235 0.04 -0.0271661 -0.0400235 0.04 -0.0262754 -0.0400235 0.04 -0.02543 -0.0400235
0.04 -0.0246256 -0.0400235 0.04 -0.0238573 -0.0400235 0.04 -0.023094 -0.0400235 0.04
-0.184464 -0.0360475 0.04 -0.188453 -0.0360475 0.04 -0.180475 -0.0360475 0.04 -0.176486
-0.0360475 0.04 -0.172497 -0.0360475 0.04 -0.168508 -0.0360475 0.04 -0.164519 -0.0360475
0.04 -0.16053 -0.0360475 0.04 -0.156541 -0.0360475 0.04 -0.152552 -0.0360475 0.04
-0.148563 -0.0360475 0.04 -0.144574 -0.0360475 0.04 -0.140586 -0.0360475 0.04 -0.136596
-0.0360475 0.04 -0.132607 -0.0360475 0.04 -0.128619 -0.0360475 0.04 -0.12463 -0.0360475
0.04 -0.120641 -0.0360475 0.04 -0.116652 -0.0360475 0.04 -0.112663 -0.0360475 0.04
-0.108674 -0.0360475 0.04 -0.104685 -0.0360475 0.04 -0.100696 -0.0360475 0.04 -0.0967069
[...]
POINT_DATA 17673
FIELD attributes 1
Mode5 3 17673 float
0 0 0 0.000128146 0 -0.000236169 0 16.6 0 0 8.25622
0 0 0 0 0.000262933 0 -0.000220469 0 0 0
0.00040479 0.0496837 -0.00022319 0 0 0 0.00055605 -0.105035 -0.000319989 0
0 0 0.000719762 -0.154719 -0.000384347 0 0 0 0.000899949 0.140105
-0.000418753 0 0 0 0.00110071 0.140105 -0.000662358 0 0 0
0.00132619 0.146242 -0.000684156 0 0 0 0.00158196 0.107935 -0.00053531 0
0 0 0.00187479 0.265011 -0.000413624 0 0 0 0.00221152 0.38297
-0.000489209 0 0 0 0.00259994 0.221576 -0.00094166 0 0 0
0.00304992 0.1307 -0.00112081 0 0 0 0.00357148 0.12826 -0.00120633 0
0 0 0.00417726 0.0887736 -0.00158488 0 0 0 0.0048822 -0.00561952
-0.00185906 0 0 0 0.00570397 -0.125961 -0.00191258 0 0 0
0.00666354 -0.240964 -0.0016205 0 0 0 0.0077813 -0.350336 -0.000697971 0
0 0 0.00908582 -0.475376 0.000327815 0 0 0 0.010609 0.0131674
0.00119169 0 0 0 0.0123832 0.454652 0.00227373 0 0 0
0.0144569 0.224822 0.00318564 0 0 0 0.0168817 -0.0380488 0.00377345 0
0 0 0.019705 -0.0575821 0.00398092 0 0 0 0.0229688 -0.121247
0.0038037 0 0 0 0.0265927 0.0594834 0.00323259 0 0 0
0.0305425 0.142663 0.0021276 0 0 0 0.0348497 -0.17108 0.00045479 0
0 0 0.0395112 -0.211812 -0.00129754 0 0 0 0.0445183 -0.0202125
-0.00334654 0 0 0 0.0498921 0.0814224 -0.00592222 0 0 0
0.0555624 0.134681 -0.00791444 0 0 0 0.0614612 0.122941 -0.00927275 0
0 0 0.0676599 0.074332 -0.0099857 0 0 0 0.0741703 0.261445
-0.0101362 0 0 0 0.0809323 0.0472008 -0.0120683 0 0 0
0.0878718 -0.218529 -0.014222 0 0 0 0.0949591 0.0949453 -0.0140967 0
0 0 0.102254 0.0733537 -0.0147739 0 0 0 0.109748 0.0140984
-0.0161888 0 0 0 0.117386 -0.0764446 -0.0178285 0 0 0
0.125131 -0.1818 -0.0177094 0 0 0 0.132848 -0.00197247 -0.0171571 0
0 0 0.140511 0.157761 -0.0182143 0 0 0 0.148157 0.323048
-0.0174913 0 0 0 0.155828 0.157907 -0.0165187 0 0 0
0.163544 -0.0173921 -0.0176295 0 0 0 0.1712 0.157453 -0.0204018 0
0 0 0.178747 0.0281097 -0.0191971 0 0 0 0.186186 -0.111256
-0.0173995 0 0 0 0.193564 0.0706694 -0.0195751 0 0 0
0.200797 0.261803 -0.0193422 0 0 0 0.207854 0.476659 -0.0196781 0
0 0 0.214744 0.131131 -0.0217001 0 0 0 0.221393 -0.209375
-0.0214105 0 0 0 0.227862 0.0763823 -0.0224493 0 0 0
0.234203 0.100185 -0.0229574 0.240455 0.131342 -0.0231017 0 0 0 0.000126868
0 -0.000235046 0 16.6 0 0.000260761 0 -0.0002873 0.000401797 0.0494825
-0.000141824 0.000552241 0.0494824 -0.000318013 0.000715186 0 -0.000358408 0.000894511 -0.0553958 -0.000464352
0.00109405 -0.195537 -0.000862918 0.00131815 -0.00364342 -0.000698201 0.00157231 0.246044 -0.000426097 0.00186271
0.358659 -0.000535752 0.00219648 0.422588 -0.000699439 0.0025811 0.270888 -0.00122254 0.00302506 0.155403
-0.00160557 0.00353857 0.0620375 -0.00157379 0.00413456 -0.0195599 -0.00195393 0.00482902 -0.122264 -0.00216702
0.00563656 -0.255937 -0.00207742 0.00657704 -0.373052 -0.00237501 0.00767312 -0.492025 -0.00262884 0.00894934
-0.283917 -0.00271228 0.0104368 0.238331 -0.00315827 0.0121698 0.395489 -0.00369084 0.0141949 0.225889
-0.00400555 0.016561 0.0623864 -0.00417619 0.019308 -0.165248 -0.00466796 0.0224718 -0.120369 -0.00552726
0.0259947 0.200983 -0.00635112 0.0298435 0.134694 -0.00724766 0.0340262 0.0619528 -0.00841091 0.0385492
-0.0700968 -0.0107593 0.0434092 0.0552404 -0.0131446 0.0486206 0.115071 -0.0148339 0.0541195 0.114759
-0.0140193 0.0598421 0.0996881 -0.0122698 0.0658513 0.0472931 -0.0130151 0.07216 0.222355 -0.0154845
0.0787166 0.00895896 -0.0176447 0.0854429 0.0768983 -0.0187557 0.0923134 0.262786 -0.0203944 0.0993965
-0.0507555 -0.021648 0.106666 -0.254409 -0.0225729 0.11407 0.00368689 -0.0238335 0.121614 0.25508
-0.0238724 0.129153 0.154004 -0.0226185 0.136628 0.0359592 -0.022809 0.14409 0.243684 -0.024884
0.151592 0.131985 -0.0242458 0.159149 -0.0330056 -0.0254799 0.166693 0.13991 -0.0279279 0.174127
0.0209805 -0.029084 0.181493 -0.091993 -0.0287624 0.188787 0.0991279 -0.0292702 0.195897 0.275783
-0.0293339 0.202909 0.500928 -0.0303344 0.209771 0.142801 -0.0313769 0.216387 -0.224175 -0.0308577
0.222926 0.0036303 -0.0336918 0.229317 0.269446 -0.0266011 0.235596 0.236801 -0.011035 0.000132253
0 -9.00792e-05 0 16.6 0 0.000267349 0 -0.000161621 0.000408219 0
-9.12029e-05 0.000558015 0 -0.000383218 0.000720011 0 -0.00042262 0.000898023 -0.0553959 -0.000480972
0.00109616 -0.200664 -0.00101301 0.00131903 -0.0911345 -0.000946136 0.00157153 0.0472493 -0.000673858 0.00185977
-0.0509665 -0.000967246 0.00219074 0.19872 -0.00146818 0.00257273 0.476656 -0.00186036 0.00301404 0.430305
-0.00225658 0.00352385 0.327363 -0.00231292 0.00411584 0.191941 -0.00271524 0.00480546 0.0630848 -0.003315
0.00560781 -0.0418763 -0.00371599 0.00654249 -0.133171 -0.00451177 0.00763128 -0.255588 -0.00530849 0.00890223
-0.101193 -0.00615244 0.0103828 0.0593957 -0.00737913 0.0121095 -0.0957422 -0.0085449 0.0141283 0.0150121
-0.00940297 0.0164829 0.117553 -0.0100454 0.0192181 -0.119561 -0.0109369 0.0223681 -0.103682 -0.0122343
0.025883 0.186571 -0.0132381 0.0297138 0.10455 -0.0144345 0.0338599 0.0175097 -0.0158624 0.0383392
0.190743 -0.0186347 0.0431583 0.325532 -0.0219606 0.0483191 0.0659813 -0.02191 0.0537589 0.0693862
-0.0195064 0.0594266 0.0820102 -0.0184328 0.0653763 0.0327906 -0.0214735 0.07165 0.2197 -0.0241216
0.0781612 0.0474881 -0.0257525 0.0848169 0.166719 -0.027688 0.0916555 0.0783483 -0.0287221 0.0986895
-0.187901 -0.0307447 0.105953 -0.0232205 -0.0326873 0.113397 0.249627 -0.0332021 0.120927 0.5168
-0.0352635 0.128459 0.15476 -0.0354754 0.13597 -0.242452 -0.0348895 0.143499 -0.00318724 -0.0374092
0.151041 0.230226 -0.0369634 0.158621 0.410395 -0.0384618 0.166224 0.29325 -0.0404218 0.173762
-0.119419 -0.0486911 0.181206 -0.189372 -0.0508813 0.188593 0.0487412 -0.0447606 0.195853 0.279476
-0.0481881 0.202999 0.554171 -0.0626842 0.209976 0.217401 -0.0578373 0.216716 -0.103146 -0.0316076
0.223341 0.206278 -0.0485434 0.229869 0.236173 -0.0598078 0.236295 -0.0382768 -0.0272159 0.000134531
0 -6.50456e-05 0 16.6 0 0.000271291 0 -5.48382e-05 0.000413345 0
3.30469e-06 0.000563848 0 -0.000196507 0.000726309 0 -0.000465082 0.000904374 0 -0.000874977
0.00110243 -0.00512707 -0.00131138 0.00132509 -0.108731 -0.00129775 0.0015772 -0.304618 -0.00133055 0.00186512
-0.460339 -0.00164746 0.00219576 -0.233817 -0.00197202 0.00257618 0.02986 -0.00248789 0.00301526 0.301143
-0.00282909 0.00352497 0.577385 -0.00310091 0.00411707 0.497686 -0.00379044 0.0048049 0.351454 -0.00478877
0.00560489 0.211089 -0.00574159 0.00653629 0.124133 -0.00645776 0.00762028 0.0470843 -0.00737607 0.00888859
-0.0649721 -0.00867289 0.0103684 -0.205021 -0.0102058 0.0120919 -0.330025 -0.0115647 0.0141062 -0.163485
-0.0126196 0.0164537 -0.0460321 -0.0136018 0.0191761 0.0599891 -0.014708 0.022303 0.10978 -0.0160451
0.0257807 0.120501 -0.0185481 0.0295641 0.111318 -0.0209327 0.033666 0.0596675 -0.0205908 0.0380975
0.287788 -0.0233604 0.0428682 0.185136 -0.0281151 0.0479796 -0.00171295 -0.0290446 0.0533734 0.0651199
-0.0296421 0.0590046 0.142994 -0.0310898 0.0649183 0.167456 -0.0347548 0.0711759 0.109273 -0.035916
0.07768 0.0312429 -0.0369261 0.0843442 0.241244 -0.0409852 0.0912173 0.0573959 -0.0408586 0.0982869
-0.128817 -0.0418076 0.105611 0.287154 -0.0456691 0.113143 0.303731 -0.045283 0.120765 0.310596
-0.0480546 0.1284 0.318941 -0.0489119 0.136034 -0.0253687 -0.0355645 0.143702 -0.051051 -0.0507175
0.15139 0.221229 -0.0686187 0.159114 0.467838 -0.0574092 0.166875 0.0873959 -0.0542221 0.174604
-0.312342 -0.0691763 0.182244 -0.0515245 -0.0573568 0.189869 0.224338 -0.0464508 0.197417 0.475977
-0.0539933 0.204816 0.427285 -0.0542775 0.212053 0.0924185 -0.0519949 0.219107 0.0787856 -0.0407786
0.22606 0.396245 -0.0510142 0.232888 0.129517 -0.0703027 0.239589 -0.157786 -0.0587242 0.000135517
0 -0.000100502 0 16.6 0 0.000273292 0 -0.000161468 0.000416319 0
-3.32585e-05 0.000567917 0 -0.000115772 0.000731223 0 -0.000687926 0.000910184 0 -0.00115978
0.00110913 0 -0.00136019 0.00133214 -0.0218956 -0.00167862 0.00158481 -0.158814 -0.00205504 0.00187318
-0.34326 -0.00224232 0.00220465 -0.456272 -0.00248593 0.00258523 -0.527343 -0.00317171 0.00302414 -0.261376
-0.00354978 0.00353443 0.0185248 -0.00390444 0.00412721 0.292311 -0.00487225 0.00481535 0.511833 -0.00604716
0.00561483 0.372404 -0.00724015 0.00654575 0.271409 -0.00833135 0.00763088 0.230888 -0.00970283 0.00889911
0.196612 -0.0112911 0.0103784 0.0972948 -0.0131693 0.0121017 -0.0386405 -0.0150046 0.0141096 -0.157649
-0.0163 0.0164424 -0.323029 -0.017502 0.01914 -0.20142 -0.0188519 0.022232 0.214065 -0.0215026
0.0256697 0.282402 -0.0239387 0.0294214 0.0207572 -0.0258056 0.0334971 0.0438455 -0.0270241 0.0379002
0.0530147 -0.0314759 0.0426419 0.0208759 -0.0361908 0.0477307 0.254828 -0.0367239 0.0531172 0.120112
-0.0401466 0.0587618 0.293462 -0.0447108 0.0646965 0.419744 -0.0476894 0.0709653 -0.16552 -0.0504005
0.0775061 -0.123441 -0.0501681 0.0842368 0.206621 -0.0510309 0.0911623 0.154789 -0.0540854 0.0983033
0.053408 -0.0561565 0.105697 0.23867 -0.0585819 0.113286 0.379445 -0.058069 0.121005 0.180432
-0.0613494 0.128772 0.275963 -0.0705252 0.136536 0.0378833 -0.0722428 0.144331 -0.211013 -0.0740844
0.152178 0.141394 -0.0841324 0.160097 0.467395 -0.0672691 0.168069 0.153322 -0.0622362 0.175974
-0.180664 -0.0802788 0.183814 0.125784 -0.0617217 0.19167 0.429741 -0.0614506 0.199434 0.390069
-0.0820431 0.207101 0.0804288 -0.0708105 0.2146 0.109681 -0.0611241 0.221946 0.120373 -0.0776687
0.229162 0.14527 -0.05864 0.236287 0.2052 -0.0487764 0.243324 0.24095 -0.0564647 0.000136166
0 -0.000118467 0 16.6 0 0.000274592 0 -0.000248472 0.000418428 0
-0.000257017 0.000570964 0 -0.000402981 0.000735161 0 -0.000835048 0.000915128 0 -0.00111535
0.00111504 0 -0.00145229 0.00133917 -0.00065555 -0.00202751 0.00159284 -0.0752653 -0.00223926 0.00188206
-0.235945 -0.00236117 0.00221411 -0.376707 -0.00318894 0.00259567 -0.465388 -0.00400654 0.00303646 -0.521117
-0.00427274 0.00354748 -0.560803 -0.0048145 0.00414118 -0.281505 -0.00606375 0.00483132 -0.014184 -0.00737362
0.00563284 0.214546 -0.00861412 0.00656639 0.437417 -0.0100309 0.00765484 0.394305 -0.011623 0.00892464
0.386595 -0.0135735 0.0104039 0.329891 -0.0157599 0.0121288 0.208012 -0.0177539 0.0141332 0.0847624
-0.0194856 0.0164503 -0.0411497 -0.0211536 0.0191291 -0.171623 -0.0228567 0.0222094 -0.00693165 -0.0266758
0.0256365 0.138336 -0.0298841 0.0293684 -0.0400438 -0.0323253 0.0334201 0.0717482 -0.034485 0.0378172
0.173323 -0.0381925 0.0425579 0.229407 -0.0430448 0.0476483 0.26951 -0.0442609 0.0530431 -0.0326107
-0.050232 0.0587148 -0.0713639 -0.0560962 0.0646995 0.159689 -0.0585399 0.0710096 0.0418883 -0.0643806
0.0775899 -0.0941131 -0.0661842 0.084378 0.0481634 -0.0661112 0.0913515 0.165032 -0.0687009 0.0985453
0.21188 -0.071483 0.106011 0.217777 -0.0620164 0.113676 0.181855 -0.0738325 0.12149 0.109871
-0.0889138 0.129362 0.0156527 -0.0769085 0.137236 -0.0939531 -0.104571 0.145138 0.078237 -0.109852
0.153127 0.215867 -0.0873002 0.16122 0.343963 -0.0656385 0.169365 0.114805 -0.0550222 0.177468
-0.136735 -0.0697883 0.185518 0.234882 -0.0804621 0.193577 0.268079 -0.0778514 0.201558 -0.00328492
-0.0998074 0.209452 0.0459226 -0.127038 0.217211 0.428468 -0.0976881 0.224872 0.189675 -0.100402
0.232377 -0.0751548 -0.104395 0.239805 0.323893 -0.0834576 0.247179 0.373323 -0.0629253 0.000136793
0 -0.000148813 0 16.6 0 0.000275859 0 -0.000306965 0.000420428 0
-0.000488312 0.000573588 0 -0.000617949 0.000738755 0 -0.000755867 0.000919671 0 -0.00110526
0.00112034 0 -0.00173899 0.00134571 0 -0.00206404 0.00160082 -0.0223515 -0.00232503 0.00189165
-0.142136 -0.00266949 0.00222457 -0.299932 -0.00347311 0.00260758 -0.404352 -0.00459026 0.00305086 -0.473329
-0.00516106 0.00356391 -0.51722 -0.00596447 0.00416005 -0.554955 -0.00721123 0.00485267 -0.589558 -0.00860296
0.00565806 -0.294587 -0.0100777 0.00659572 -0.0191782 -0.0117135 0.00768694 0.239968 -0.0136412 0.00896138
0.524002 -0.0158173 0.0104458 0.496639 -0.0180295 0.0121722 0.4398 -0.0200095 0.0141766 0.341024
-0.0220936 0.0164941 0.235743 -0.0244164 0.0191752 0.163155 -0.026014 0.0222574 0.0969715 -0.0296509
0.0256797 0.0174603 -0.0350944 0.0294061 -0.074478 -0.0403492 0.0334519 0.137218 -0.0409861 0.037844
0.331943 -0.0443515 0.0425896 0.193884 -0.0525688 0.0477093 0.0493267 -0.0555487 0.0531401 -0.126431
-0.0617697 0.0588303 -0.338444 -0.0660867 0.0648472 -0.266521 -0.0684556 0.0712001 0.103603 -0.0749806
0.0778174 0.133154 -0.0773414 0.0846447 0.128713 -0.0797743 0.0916558 0.105076 -0.0830889 0.0988943
0.0366595 -0.0817908 0.106404 0.235681 -0.0628381 0.114119 0.055343 -0.0849703 0.122002 -0.175165
-0.124767 0.129939 -0.101428 -0.092867 0.137873 -0.0519459 -0.0954092 0.14584 0.251837 -0.131398
0.15391 0.220363 -0.0995182 0.162087 0.198007 -0.0627431 0.170308 0.10544 -0.0661686 0.178541
-0.034106 -0.0954029 0.186762 0.14207 -0.115622 0.194954 -0.024438 -0.0893676 0.203077 0.122194
-0.0907916 0.211118 0.236672 -0.131111 0.219079 0.353198 -0.118597 0.226926 0.181156 -0.112348
0.234666 -0.00266574 -0.142697 0.242322 0.452517 -0.116422 0.24984 0.213243 -0.0704849 0.00013761
0 -0.00018008 0 16.6 0 0.000277472 0 -0.00036985 0.000422766 0
-0.000566408 0.000576515 0 -0.000768003 0.000742589 0 -0.000900756 0.000924687 0 -0.00126709
0.00112645 0 -0.00185162 0.00135293 0 -0.00207962 0.00160947 -0.00198637 -0.00260269 0.00190178
-0.0698506 -0.00327553 0.00223639 -0.209994 -0.00395626 0.00262182 -0.336536 -0.00503119 0.00306749 -0.423359
-0.00596652 0.00358348 -0.478896 -0.0070261 0.00418255 -0.516472 -0.00830002 0.00487805 -0.542966 -0.00974187
0.00568782 -0.53408 -0.0113517 0.00663053 -0.512326 -0.0133005 0.00772783 -0.21616 -0.0155827 0.00900917
0.0397692 -0.0177408 0.0105026 0.00538744 -0.0201595 0.0122361 -0.0122861 -0.0224601 0.0142502 -0.0588765
-0.0246262 0.0165829 -0.102496 -0.0272466 0.0192814 -0.110186 -0.0305406 0.0223714 -0.102477 -0.0344296
0.0257959 -0.118196 -0.0387508 0.0295271 -0.136004 -0.0453758 0.0335724 -0.121556 -0.0496739 0.037971
-0.122455 -0.0557477 0.0427407 -0.1555 -0.06229 0.0478818 -0.172987 -0.0644437 0.0533479 -0.18492
-0.0696647 0.0590739 -0.216739 -0.0752527 0.0651182 -0.268994 -0.0807282 0.0714914 -0.0251587 -0.0857812
0.0781385 0.196901 -0.0877633 0.0849919 0.0817143 -0.0906283 0.0920235 -0.0633046 -0.109317 0.0993007
-0.236513 -0.104644 0.106829 -0.12347 -0.0722553 0.114553 -0.0666663 -0.0901249 0.12244 -0.0686625
-0.135413 0.130374 0.220598 -0.129274 0.138321 0.158106 -0.11541 0.146311 0.0354548 -0.123458
0.154403 0.201716 -0.117426 0.162608 0.327903 -0.0958785 0.170859 0.0910967 -0.106584 0.179122
0.157564 -0.139041 0.187329 0.197584 -0.12396 0.195548 0.181826 -0.107919 0.203769 0.436682
-0.103792 0.211889 0.367296 -0.122927 0.219904 0.274181 -0.139571 0.227817 0.180043 -0.134372
0.235591 0.0923402 -0.136477 0.243366 0.313975 -0.115076 0.251051 0.138731 -0.115698 0.000138545
0 -0.000189964 0 16.6 0 0.000279292 0 -0.000393684 0.000425465 0
-0.000605327 0.000580256 0 -0.000827948 0.000747094 0 -0.00106044 0.000930186 0 -0.00141465
0.00113323 0 -0.00185586 0.00136073 0 -0.0023128 0.00161841 0 -0.00288589 0.00191232
-0.0223659 -0.00359257 0.00224916 -0.115832 -0.00443549 0.0026365 -0.258304 -0.00538821 0.00308509 -0.365283
-0.00646625 0.00360436 -0.429368 -0.00771017 0.00420613 -0.476311 -0.00911106 0.00490588 -0.503776 -0.01084
0.00572169 -0.483634 -0.0125944 0.00667128 -0.415091 -0.0145957 0.00777746 -0.378865 -0.0170748 0.00906546
-0.402468 -0.0197241 0.0105678 -0.438789 -0.0224991 0.0123146 -0.478281 -0.0249014 0.0143461 -0.499697
-0.0273383 0.0167001 -0.465104 -0.0303534 0.0194148 -0.387818 -0.0359665 0.0225205 -0.317284 -0.0416377
0.0259605 -0.272245 -0.0444854 0.029701 -0.199206 -0.0511332 0.0337562 -0.0759853 -0.057489 0.0381795
0.0392242 -0.0617737 0.0429851 -0.18731 -0.0683357 0.0481627 -0.381246 -0.0740192 0.0536555 -0.218177
-0.0783779 0.0594111 -0.0655514 -0.083567 0.0654797 0.0840978 -0.0894483 0.0718726 0.222731 -0.0965474
0.0785426 0.021837 -0.102426 0.0853978 -0.173611 -0.10515 0.0924481 -0.0805032 -0.122626 0.0997209
-0.00667705 -0.130519 0.107218 0.0523104 -0.110014 0.114944 0.0604598 -0.116921 0.122802 0.346323
-0.148023 0.130678 0.600416 -0.160217 0.138561 0.163591 -0.149589 0.146497 0.0172809 -0.143918
0.154524 0.449852 -0.14043 0.162647 0.476724 -0.137784 0.170836 0.165224 -0.153206 0.179009
0.161838 -0.148796 0.187115 0.106454 -0.12006 0.195248 0.294133 -0.114048 0.203398 0.420903
-0.113808 0.211437 0.204918 -0.135297 0.219335 0.286205 -0.156046 0.22715 0.336428 -0.156729
0.234846 0.350868 -0.135148 0.242573 0.369505 -0.12249 0.250259 0.294704 -0.165805 0.000139548
0 -0.000185203 0 16.6 0 0.000281255 0 -0.000373889 0.000428347 0
-0.000577762 0.000584374 0 -0.000851101 0.000752265 0 -0.00112913 0.000936 0 -0.0014743
0.00114027 0 -0.00197082 0.00136902 0 -0.00248429 0.00162754 0 -0.00307262 0.00192257
-0.00302994 -0.00382674 0.00226118 -0.0531497 -0.00472134 0.00265087 -0.179157 -0.00576631 0.00310211 -0.300528
-0.0069526 0.00362403 -0.371752 -0.00833873 0.00422893 -0.424442 -0.010001 0.00493469 -0.461823 -0.0118363
0.00575501 -0.449164 -0.0137672 0.00670964 -0.371033 -0.0158702 0.00782486 -0.298175 -0.0184314 0.00912207
-0.26299 -0.02145 0.0106346 -0.255179 -0.0242693 0.0123989 -0.275153 -0.0267945 0.0144495 -0.279039
-0.0295835 0.016823 -0.220298 -0.0330631 0.0195582 -0.0967535 -0.0382577 0.0226873 0.044089 -0.0432442
0.02615 0.170262 -0.0479645 0.0299137 0.00872987 -0.0558029 0.0340024 -0.107847 -0.0626111 0.0384523
0.118361 -0.0669368 0.0432895 0.0580496 -0.0769434 0.048515 0.0178765 -0.0851712 0.0540478 -0.00265859
-0.0884806 0.0598369 0.00110595 -0.093312 0.065923 0.341089 -0.099411 0.0723496 0.372776 -0.108239
0.0790388 0.102842 -0.114245 0.0858897 -0.148153 -0.11658 0.0929399 -0.103649 -0.123265 0.100187
0.251944 -0.125314 0.107642 0.301679 -0.120232 0.11531 0.306523 -0.136673 0.123081 0.269198
-0.155797 0.130887 0.231854 -0.168967 0.138702 0.141097 -0.170573 0.146517 0.315877 -0.186443
0.154373 0.431483 -0.183771 0.16234 0.160202 -0.160211 0.170362 0.169133 -0.163061 0.178318
0.124154 -0.160364 0.186247 0.0255317 -0.152164 0.194174 0.171091 -0.135428 0.202098 0.243206
-0.128096 0.209913 -0.049761 -0.151222 0.217574 0.245008 -0.155033 0.225116 0.502733 -0.155659
0.232564 0.372799 -0.15078 0.240017 0.21673 -0.136877 0.247468 0.250203 -0.155329 0.000140528
0 -0.000179929 0 16.6 0 0.000283218 0 -0.000350056 0.000431221 0
-0.00055784 0.000587987 0 -0.000844097 0.000756814 0 -0.00115469 0.000941365 0 -0.00150041
0.00114655 0 -0.00195651 0.00137619 0 -0.00253419 0.00163532 0 -0.00319773 0.00193098
0 -0.00397322 0.00227057 -0.018843 -0.00492697 0.00266189 -0.0918919 -0.0060917 0.00311393 -0.20865
-0.00736238 0.00363746 -0.307372 -0.0088529 0.0042449 -0.367047 -0.0106469 0.00495382 -0.404181 -0.0124861
0.0057786 -0.41478 -0.0145951 0.00674005 -0.357531 -0.0169107 0.00786245 -0.266947 -0.0194802 0.00916799
-0.196312 -0.0227131 0.0106915 -0.143912 -0.025872 0.0124698 -0.112205 -0.0287323 0.0145364 -0.0801303
-0.0318417 0.0169294 0.00291657 -0.0353991 0.019688 0.161099 -0.0397578 0.0228387 0.347443 -0.0428883
0.0263292 0.203003 -0.0492988 0.0301256 -0.193897 -0.058411 0.0342483 -0.221882 -0.0669018 0.0387311
0.0991923 -0.0736691 0.0436087 0.148719 -0.0834846 0.04887 0.242139 -0.0914009 0.0544512 0.0441251
-0.0946077 0.0603022 -0.123235 -0.1017 0.0664139 0.397774 -0.111244 0.0728542 0.309029 -0.119824
0.0795739 -0.0559104 -0.124037 0.0864454 -0.0604795 -0.127505 0.0934841 -0.0762957 -0.135342 0.100707
0.256514 -0.130293 0.10814 0.307736 -0.133169 0.115742 0.00565984 -0.150457 0.123419 0.00434475
-0.148517 0.13113 0.0169686 -0.16503 0.138831 -0.0220327 -0.175767 0.146486 0.180038 -0.177101
0.154153 0.0325918 -0.195367 0.161927 -0.134575 -0.196904 0.169712 -0.0652704 -0.197277 0.177396
-0.0676318 -0.194669 0.185041 0.174746 -0.194935 0.192683 0.35374 -0.195597 0.20028 0.125855
-0.181543 0.207731 -0.188427 -0.184158 0.215019 0.0622701 -0.177443 0.222187 0.221315 -0.173658
0.22931 -0.0141073 -0.174366 0.236352 0.0453918 -0.150713 0.243413 0.238788 -0.144826 0.000141422