# vtk DataFile Version 2.0
sampleSurface
ASCII
DATASET POLYDATA
POINTS 17673 float
0.04 -0.184464 -0.06 0.04 -0.184464 -0.0559273 0.04 -0.188453 -0.0559273 0.04 -0.188453
-0.06 0.04 -0.180475 -0.06 0.04 -0.180475 -0.0559273 0.04 -0.176486 -0.06
0.04 -0.176486 -0.0559273 0.04 -0.172497 -0.06 0.04 -0.172497 -0.0559273 0.04
-0.168508 -0.06 0.04 -0.168508 -0.0559273 0.04 -0.164519 -0.06 0.04 -0.164519
-0.0559273 0.04 -0.16053 -0.06 0.04 -0.16053 -0.0559273 0.04 -0.156541 -0.06
0.04 -0.156541 -0.0559273 0.04 -0.152552 -0.06 0.04 -0.152552 -0.0559273 0.04
-0.148563 -0.06 0.04 -0.148563 -0.0559273 0.04 -0.144574 -0.06 0.04 -0.144574
-0.0559273 0.04 -0.140586 -0.06 0.04 -0.140586 -0.0559273 0.04 -0.136596 -0.06
0.04 -0.136596 -0.0559273 0.04 -0.132607 -0.06 0.04 -0.132607 -0.0559273 0.04
-0.128619 -0.06 0.04 -0.128619 -0.0559273 0.04 -0.12463 -0.06 0.04 -0.12463
-0.0559273 0.04 -0.120641 -0.06 0.04 -0.120641 -0.0559273 0.04 -0.116652 -0.06
0.04 -0.116652 -0.0559273 0.04 -0.112663 -0.06 0.04 -0.112663 -0.0559273 0.04
-0.108674 -0.06 0.04 -0.108674 -0.0559273 0.04 -0.104685 -0.06 0.04 -0.104685
-0.0559273 0.04 -0.100696 -0.06 0.04 -0.100696 -0.0559273 0.04 -0.0967069 -0.06
0.04 -0.0967069 -0.0559273 0.04 -0.0927179 -0.06 0.04 -0.0927179 -0.0559273 0.04
-0.088739 -0.06 0.04 -0.0887391 -0.0559273 0.04 -0.0847775 -0.06 0.04 -0.0847775
-0.0559273 0.04 -0.0809835 -0.06 0.04 -0.0809835 -0.0559273 0.04 -0.0773956 -0.06
0.04 -0.0773956 -0.0559273 0.04 -0.0739968 -0.06 0.04 -0.0739968 -0.0559273 0.04
-0.0707629 -0.06 0.04 -0.0707629 -0.0559273 0.04 -0.0676784 -0.06 0.04 -0.0676784
-0.0559273 0.04 -0.0647301 -0.06 0.04 -0.0647301 -0.0559273 0.04 -0.0619431 -0.06
0.04 -0.0619431 -0.0559273 0.04 -0.0593321 -0.06 0.04 -0.0593321 -0.0559273 0.04
-0.0568459 -0.06 0.04 -0.0568459 -0.0559273 0.04 -0.0544545 -0.06 0.04 -0.0544545
-0.0559273 0.04 -0.0521732 -0.06 0.04 -0.0521732 -0.0559273 0.04 -0.0500374 -0.06
0.04 -0.0500374 -0.0559273 0.04 -0.0480123 -0.06 0.04 -0.0480123 -0.0559273 0.04
-0.046084 -0.06 0.04 -0.046084 -0.0559273 0.04 -0.0442254 -0.06 0.04 -0.0442254
-0.0559273 0.04 -0.0424486 -0.06 0.04 -0.0424486 -0.0559273 0.04 -0.0407648 -0.06
0.04 -0.0407648 -0.0559273 0.04 -0.0391821 -0.06 0.04 -0.0391821 -0.0559273 0.04
-0.0376993 -0.06 0.04 -0.0376993 -0.0559273 0.04 -0.0362943 -0.06 0.04 -0.0362943
-0.0559273 0.04 -0.0349524 -0.06 0.04 -0.0349524 -0.0559273 0.04 -0.0336651 -0.06
0.04 -0.0336651 -0.0559273 0.04 -0.0324289 -0.06 0.04 -0.0324289 -0.0559273 0.04
-0.0312728 -0.06 0.04 -0.0312728 -0.0559273 0.04 -0.0301752 -0.06 0.04 -0.0301752
-0.0559273 0.04 -0.0291177 -0.06 0.04 -0.0291177 -0.0559273 0.04 -0.0281145 -0.06
0.04 -0.0281145 -0.0559273 0.04 -0.0271661 -0.06 0.04 -0.0271661 -0.0559273 0.04
-0.0262754 -0.06 0.04 -0.0262754 -0.0559273 0.04 -0.02543 -0.06 0.04 -0.02543
-0.0559273 0.04 -0.0246256 -0.06 0.04 -0.0246256 -0.0559273 0.04 -0.0238573 -0.06
0.04 -0.0238573 -0.0559273 0.04 -0.023094 -0.0559273 0.04 -0.023094 -0.06 0.04
-0.184464 -0.0519514 0.04 -0.188453 -0.0519514 0.04 -0.180475 -0.0519514 0.04 -0.176486
-0.0519514 0.04 -0.172497 -0.0519514 0.04 -0.168508 -0.0519514 0.04 -0.164519 -0.0519514
0.04 -0.16053 -0.0519514 0.04 -0.156541 -0.0519514 0.04 -0.152552 -0.0519514 0.04
-0.148563 -0.0519514 0.04 -0.144574 -0.0519514 0.04 -0.140586 -0.0519514 0.04 -0.136596
-0.0519514 0.04 -0.132607 -0.0519514 0.04 -0.128619 -0.0519514 0.04 -0.12463 -0.0519514
0.04 -0.120641 -0.0519514 0.04 -0.116652 -0.0519514 0.04 -0.112663 -0.0519514 0.04
-0.108674 -0.0519514 0.04 -0.104685 -0.0519514 0.04 -0.100696 -0.0519514 0.04 -0.0967069
-0.0519514 0.04 -0.0927179 -0.0519514 0.04 -0.088739 -0.0519514 0.04 -0.0847775 -0.0519514
0.04 -0.0809835 -0.0519514 0.04 -0.0773956 -0.0519514 0.04 -0.0739968 -0.0519514 0.04
-0.0707629 -0.0519514 0.04 -0.0676784 -0.0519514 0.04 -0.0647301 -0.0519514 0.04 -0.0619431
-0.0519514 0.04 -0.0593321 -0.0519514 0.04 -0.0568459 -0.0519514 0.04 -0.0544545 -0.0519514
0.04 -0.0521732 -0.0519514 0.04 -0.0500374 -0.0519514 0.04 -0.0480123 -0.0519514 0.04
-0.046084 -0.0519514 0.04 -0.0442254 -0.0519514 0.04 -0.0424486 -0.0519514 0.04 -0.0407648
-0.0519514 0.04 -0.0391821 -0.0519514 0.04 -0.0376993 -0.0519514 0.04 -0.0362943 -0.0519514
0.04 -0.0349524 -0.0519514 0.04 -0.0336651 -0.0519514 0.04 -0.0324289 -0.0519514 0.04
-0.0312728 -0.0519514 0.04 -0.0301752 -0.0519514 0.04 -0.0291177 -0.0519514 0.04 -0.0281145
-0.0519514 0.04 -0.0271661 -0.0519514 0.04 -0.0262754 -0.0519514 0.04 -0.02543 -0.0519514
0.04 -0.0246256 -0.0519514 0.04 -0.0238573 -0.0519514 0.04 -0.023094 -0.0519514 0.04
-0.184464 -0.0479754 0.04 -0.188453 -0.0479754 0.04 -0.180475 -0.0479754 0.04 -0.176486
-0.0479754 0.04 -0.172497 -0.0479754 0.04 -0.168508 -0.0479754 0.04 -0.164519 -0.0479754
0.04 -0.16053 -0.0479754 0.04 -0.156541 -0.0479754 0.04 -0.152552 -0.0479754 0.04
-0.148563 -0.0479754 0.04 -0.144574 -0.0479754 0.04 -0.140586 -0.0479754 0.04 -0.136596
-0.0479754 0.04 -0.132607 -0.0479754 0.04 -0.128619 -0.0479754 0.04 -0.12463 -0.0479754
0.04 -0.120641 -0.0479754 0.04 -0.116652 -0.0479754 0.04 -0.112663 -0.0479754 0.04
-0.108674 -0.0479754 0.04 -0.104685 -0.0479754 0.04 -0.100696 -0.0479754 0.04 -0.0967069
-0.0479754 0.04 -0.0927179 -0.0479754 0.04 -0.0887391 -0.0479754 0.04 -0.0847775 -0.0479754
0.04 -0.0809835 -0.0479754 0.04 -0.0773956 -0.0479754 0.04 -0.0739968 -0.0479754 0.04
-0.0707629 -0.0479754 0.04 -0.0676784 -0.0479754 0.04 -0.0647301 -0.0479754 0.04 -0.0619431
-0.0479754 0.04 -0.0593321 -0.0479754 0.04 -0.0568459 -0.0479754 0.04 -0.0544545 -0.0479754
0.04 -0.0521732 -0.0479754 0.04 -0.0500374 -0.0479754 0.04 -0.0480123 -0.0479754 0.04
-0.046084 -0.0479754 0.04 -0.0442254 -0.0479754 0.04 -0.0424486 -0.0479754 0.04 -0.0407648
-0.0479754 0.04 -0.0391821 -0.0479754 0.04 -0.0376993 -0.0479754 0.04 -0.0362943 -0.0479754
0.04 -0.0349524 -0.0479754 0.04 -0.0336651 -0.0479754 0.04 -0.0324289 -0.0479754 0.04
-0.0312728 -0.0479754 0.04 -0.0301752 -0.0479754 0.04 -0.0291177 -0.0479754 0.04 -0.0281145
-0.0479754 0.04 -0.0271661 -0.0479754 0.04 -0.0262754 -0.0479754 0.04 -0.02543 -0.0479754
0.04 -0.0246256 -0.0479754 0.04 -0.0238573 -0.0479754 0.04 -0.023094 -0.0479754 0.04
-0.184464 -0.0439994 0.04 -0.188453 -0.0439994 0.04 -0.180475 -0.0439994 0.04 -0.176486
-0.0439994 0.04 -0.172497 -0.0439994 0.04 -0.168508 -0.0439994 0.04 -0.164519 -0.0439994
0.04 -0.16053 -0.0439994 0.04 -0.156541 -0.0439994 0.04 -0.152552 -0.0439994 0.04
-0.148563 -0.0439994 0.04 -0.144574 -0.0439994 0.04 -0.140586 -0.0439994 0.04 -0.136596
-0.0439994 0.04 -0.132607 -0.0439994 0.04 -0.128619 -0.0439994 0.04 -0.12463 -0.0439994
0.04 -0.120641 -0.0439994 0.04 -0.116652 -0.0439994 0.04 -0.112663 -0.0439994 0.04
-0.108674 -0.0439994 0.04 -0.104685 -0.0439994 0.04 -0.100696 -0.0439994 0.04 -0.0967069
-0.0439994 0.04 -0.0927179 -0.0439994 0.04 -0.0887391 -0.0439994 0.04 -0.0847775 -0.0439994
0.04 -0.0809835 -0.0439994 0.04 -0.0773956 -0.0439994 0.04 -0.0739968 -0.0439994 0.04
-0.0707629 -0.0439994 0.04 -0.0676784 -0.0439994 0.04 -0.0647301 -0.0439994 0.04 -0.0619431
-0.0439994 0.04 -0.0593321 -0.0439994 0.04 -0.0568459 -0.0439994 0.04 -0.0544545 -0.0439994
0.04 -0.0521732 -0.0439994 0.04 -0.0500374 -0.0439994 0.04 -0.0480123 -0.0439994 0.04
-0.046084 -0.0439994 0.04 -0.0442254 -0.0439994 0.04 -0.0424486 -0.0439994 0.04 -0.0407648
-0.0439994 0.04 -0.0391821 -0.0439994 0.04 -0.0376993 -0.0439994 0.04 -0.0362943 -0.0439994
0.04 -0.0349524 -0.0439994 0.04 -0.0336651 -0.0439994 0.04 -0.0324289 -0.0439994 0.04
-0.0312728 -0.0439994 0.04 -0.0301752 -0.0439994 0.04 -0.0291177 -0.0439994 0.04 -0.0281145
-0.0439994 0.04 -0.0271661 -0.0439994 0.04 -0.0262754 -0.0439994 0.04 -0.02543 -0.0439994
0.04 -0.0246256 -0.0439994 0.04 -0.0238573 -0.0439994 0.04 -0.023094 -0.0439994 0.04
-0.184464 -0.0400235 0.04 -0.188453 -0.0400235 0.04 -0.180475 -0.0400235 0.04 -0.176486
-0.0400235 0.04 -0.172497 -0.0400235 0.04 -0.168508 -0.0400235 0.04 -0.164519 -0.0400235
0.04 -0.16053 -0.0400235 0.04 -0.156541 -0.0400235 0.04 -0.152552 -0.0400235 0.04
-0.148563 -0.0400235 0.04 -0.144574 -0.0400235 0.04 -0.140586 -0.0400235 0.04 -0.136596
-0.0400235 0.04 -0.132607 -0.0400235 0.04 -0.128619 -0.0400235 0.04 -0.12463 -0.0400235
0.04 -0.120641 -0.0400235 0.04 -0.116652 -0.0400235 0.04 -0.112663 -0.0400235 0.04
-0.108674 -0.0400235 0.04 -0.104685 -0.0400235 0.04 -0.100696 -0.0400235 0.04 -0.0967069
-0.0400235 0.04 -0.0927179 -0.0400235 0.04 -0.088739 -0.0400235 0.04 -0.0847775 -0.0400235
0.04 -0.0809835 -0.0400235 0.04 -0.0773956 -0.0400235 0.04 -0.0739968 -0.0400235 0.04
-0.0707629 -0.0400235 0.04 -0.0676784 -0.0400235 0.04 -0.0647301 -0.0400235 0.04 -0.0619431
-0.0400235 0.04 -0.0593321 -0.0400235 0.04 -0.0568459 -0.0400235 0.04 -0.0544545 -0.0400235
0.04 -0.0521732 -0.0400235 0.04 -0.0500374 -0.0400235 0.04 -0.0480123 -0.0400235 0.04
-0.046084 -0.0400235 0.04 -0.0442254 -0.0400235 0.04 -0.0424486 -0.0400235 0.04 -0.0407648
-0.0400235 0.04 -0.0391821 -0.0400235 0.04 -0.0376993 -0.0400235 0.04 -0.0362943 -0.0400235
0.04 -0.0349524 -0.0400235 0.04 -0.0336651 -0.0400235 0.04 -0.0324289 -0.0400235 0.04
-0.0312728 -0.0400235 0.04 -0.0301752 -0.0400235 0.04 -0.0291177 -0.0400235 0.04 -0.0281145
-0.0400235 0.04 -0.0271661 -0.0400235 0.04 -0.0262754 -0.0400235 0.04 -0.02543 -0.0400235
0.04 -0.0246256 -0.0400235 0.04 -0.0238573 -0.0400235 0.04 -0.023094 -0.0400235 0.04
-0.184464 -0.0360475 0.04 -0.188453 -0.0360475 0.04 -0.180475 -0.0360475 0.04 -0.176486
-0.0360475 0.04 -0.172497 -0.0360475 0.04 -0.168508 -0.0360475 0.04 -0.164519 -0.0360475
0.04 -0.16053 -0.0360475 0.04 -0.156541 -0.0360475 0.04 -0.152552 -0.0360475 0.04
-0.148563 -0.0360475 0.04 -0.144574 -0.0360475 0.04 -0.140586 -0.0360475 0.04 -0.136596
-0.0360475 0.04 -0.132607 -0.0360475 0.04 -0.128619 -0.0360475 0.04 -0.12463 -0.0360475
0.04 -0.120641 -0.0360475 0.04 -0.116652 -0.0360475 0.04 -0.112663 -0.0360475 0.04
-0.108674 -0.0360475 0.04 -0.104685 -0.0360475 0.04 -0.100696 -0.0360475 0.04 -0.0967069
[...]
POINT_DATA 17673
FIELD attributes 1
Mode2 3 17673 float
0 0 0 -0.000388058 0 -0.0122207 0 16.6 0 0 8.25622
0 0 0 0 -0.000792726 0 -0.0248676 0 0 0
-0.00121621 0.0849498 -0.0377647 0 0 0 -0.00166585 0.233906 -0.0506979 0
0 0 -0.00215072 0.148956 -0.0634386 0 0 0 -0.00268035 0.141375
-0.0759032 0 0 0 -0.00326396 0.141375 -0.0880666 0 0 0
-0.00391151 0.1364 -0.0998228 0 0 0 -0.00463352 0.311761 -0.111101 0
0 0 -0.00543999 0.472039 -0.121852 0 0 0 -0.00634295 0.654479
-0.132016 0 0 0 -0.00735666 0.652716 -0.141523 0 0 0
-0.00849617 0.532652 -0.150309 0 0 0 -0.00978069 0.54894 -0.158309 0
0 0 -0.01123 0.657587 -0.165412 0 0 0 -0.0128687 0.81469
-0.171526 0 0 0 -0.014727 1.02852 -0.176516 0 0 0
-0.0168371 1.17602 -0.18012 0 0 0 -0.0192405 1.27404 -0.181926 0
0 0 -0.0219837 1.36571 -0.181642 0 0 0 -0.0251179 1.52846
-0.179404 0 0 0 -0.0287076 1.72216 -0.175665 0 0 0
-0.0328274 1.85871 -0.170916 0 0 0 -0.0375433 2.02335 -0.165523 0
0 0 -0.0429361 2.17487 -0.159734 0 0 0 -0.0490371 2.28897
-0.153437 0 0 0 -0.055684 2.41979 -0.146675 0 0 0
-0.0627859 2.53875 -0.139968 0 0 0 -0.0703222 2.65934 -0.133768 0
0 0 -0.0782907 2.77975 -0.128225 0 0 0 -0.0867034 2.87259
-0.123321 0 0 0 -0.0955317 2.95282 -0.118755 0 0 0
-0.104647 3.05127 -0.114018 0 0 0 -0.113946 3.12144 -0.108879 0
0 0 -0.123492 3.17151 -0.103079 0 0 0 -0.133348 3.25907
-0.0960639 0 0 0 -0.143378 3.34235 -0.0873478 0 0 0
-0.153409 3.35934 -0.0766373 0 0 0 -0.163443 3.37069 -0.0638862 0
0 0 -0.173506 3.41279 -0.0490242 0 0 0 -0.183653 3.43575
-0.0319126 0 0 0 -0.193822 3.42713 -0.012385 0 0 0
-0.203791 3.41726 0.00991458 0 0 0 -0.213387 3.42438 0.0346579 0
0 0 -0.222563 3.4108 0.0620748 0 0 0 -0.231428 3.40289
0.0923956 0 0 0 -0.240014 3.39219 0.125331 0 0 0
-0.248291 3.33142 0.161119 0 0 0 -0.256205 3.28159 0.200401 0
0 0 -0.263573 3.24408 0.243155 0 0 0 -0.270418 3.16967
0.289156 0 0 0 -0.276832 3.07509 0.339319 0 0 0
-0.282702 2.98084 0.393768 0 0 0 -0.287854 2.91863 0.452815 0
0 0 -0.292265 2.85035 0.516473 0 0 0 -0.296062 2.76455
0.584911 0 0 0 -0.299124 2.68361 0.658698 0 0 0
-0.301744 2.59274 0.739263 -0.303916 2.4847 0.825462 0 0 0 -0.000371687
0 -0.0153761 0 16.6 0 -0.000759161 0 -0.0318259 -0.0011633 0.0846058
-0.0488622 -0.00159046 0.0846057 -0.0661862 -0.00204884 0 -0.0835686 -0.00254741 0.0888812 -0.100946
-0.00309473 0.233406 -0.118269 -0.00370004 0.287323 -0.135452 -0.00437267 0.282964 -0.152462 -0.0051222
0.434432 -0.169266 -0.00596011 0.544499 -0.185829 -0.00689986 0.413453 -0.202099 -0.00795555 0.301955
-0.21799 -0.0091445 0.321641 -0.233441 -0.0104852 0.378713 -0.24836 -0.0120018 0.488717 -0.262658
-0.013723 0.62427 -0.276218 -0.0156796 0.72195 -0.288909 -0.0179116 0.820372 -0.300614 -0.0204628
0.883847 -0.311276 -0.02338 0.992648 -0.320892 -0.0267245 1.16562 -0.329485 -0.0305626 1.29652
-0.3371 -0.0349609 1.42213 -0.343711 -0.0399969 1.55673 -0.349485 -0.0456964 1.68143 -0.354246
-0.0518994 1.81487 -0.357347 -0.0585206 1.95033 -0.358539 -0.0655387 2.08901 -0.357677 -0.0729449
2.22009 -0.354878 -0.0807571 2.32192 -0.350307 -0.0889221 2.42513 -0.343893 -0.0973269 2.54102
-0.335394 -0.105909 2.60741 -0.324595 -0.114696 2.67921 -0.311157 -0.123732 2.77466 -0.294885
-0.132896 2.84097 -0.275193 -0.142024 2.88865 -0.251397 -0.151111 2.95266 -0.223838 -0.160206
2.98973 -0.192466 -0.169351 2.99774 -0.156885 -0.178453 3.00894 -0.117206 -0.187357 3.0048
-0.0729783 -0.195899 3.01958 -0.0240875 -0.20403 3.02773 0.0292901 -0.21181 3.01834 0.0871487
-0.219279 3.00555 0.149011 -0.226527 2.97373 0.214574 -0.23339 2.93971 0.284309 -0.239566
2.91352 0.357853 -0.245297 2.86892 0.434462 -0.250671 2.80835 0.514889 -0.255474 2.75415
0.598351 -0.259562 2.69645 0.684773 -0.262881 2.62686 0.774544 -0.265526 2.54868 0.865753
-0.267491 2.50524 0.959447 -0.269153 2.44849 1.05628 -0.270129 2.36387 1.15469 -0.000375713
0 -0.0211769 0 16.6 0 -0.000752937 0 -0.0431957 -0.00114006 0
-0.0657178 -0.00154536 0 -0.088547 -0.00197695 0 -0.111553 -0.00244299 0.0888814 -0.13462
-0.00295133 0.250849 -0.157649 -0.00351047 0.413916 -0.180579 -0.00412834 0.509806 -0.20334 -0.00481438
0.515929 -0.225903 -0.0055795 0.501741 -0.248215 -0.00643532 0.484861 -0.270211 -0.00739553 0.504099
-0.291839 -0.00847639 0.576491 -0.313006 -0.00969608 0.69346 -0.333642 -0.0110772 0.772976 -0.353679
-0.0126468 0.795594 -0.373001 -0.014436 0.847608 -0.391549 -0.0164822 0.954759 -0.409315 -0.0188276
1.05816 -0.426255 -0.0215225 1.13451 -0.44226 -0.024624 1.23136 -0.457097 -0.028196 1.3198
-0.470683 -0.0323099 1.39358 -0.482863 -0.0370363 1.48651 -0.493626 -0.0423973 1.59005 -0.50273
-0.0482416 1.68761 -0.508922 -0.0544651 1.76942 -0.511484 -0.0610552 1.84519 -0.510243 -0.068019
1.93131 -0.505826 -0.0753437 1.97868 -0.49857 -0.0829952 2.0278 -0.488307 -0.0908971 2.09711
-0.474724 -0.098981 2.13366 -0.457393 -0.107268 2.19121 -0.436571 -0.115818 2.23333 -0.41233
-0.124511 2.25953 -0.383727 -0.133169 2.30706 -0.349984 -0.141813 2.33329 -0.311174 -0.150511
2.34588 -0.267392 -0.15928 2.35113 -0.21826 -0.168017 2.37023 -0.163376 -0.176571 2.38237
-0.102301 -0.184778 2.37887 -0.0346457 -0.192607 2.38365 0.0400721 -0.200058 2.36787 0.120947
-0.207259 2.35629 0.207013 -0.214308 2.34166 0.298228 -0.220965 2.29616 0.394522 -0.226988
2.26173 0.495137 -0.232596 2.23409 0.599645 -0.237828 2.21497 0.709677 -0.242453 2.17123
0.823956 -0.246383 2.10137 0.940721 -0.249562 2.04732 1.05863 -0.252078 1.97831 1.17841
-0.253964 1.93168 1.30132 -0.255546 1.86331 1.42392 -0.256254 1.78172 1.54565 -0.000365594
0 -0.0294311 0 16.6 0 -0.000729637 0 -0.0588485 -0.00109996 0
-0.0881513 -0.00148429 0 -0.117342 -0.00189008 0 -0.146391 -0.00232456 0 -0.175243
-0.0027947 0.017443 -0.203847 -0.00330804 0.177508 -0.232145 -0.00387218 0.392977 -0.260082 -0.00449506
0.487536 -0.287621 -0.00518684 0.507368 -0.31468 -0.00595804 0.505742 -0.341187 -0.00682214 0.497642
-0.367097 -0.00779475 0.492108 -0.392305 -0.00889085 0.575055 -0.416741 -0.0101341 0.695779 -0.440293
-0.0115518 0.761002 -0.462843 -0.0131718 0.789569 -0.484287 -0.015031 0.855941 -0.504551 -0.0171722
0.985503 -0.52345 -0.019645 1.08836 -0.540911 -0.0225045 1.1623 -0.556722 -0.0258158 1.23441
-0.570722 -0.0296468 1.28726 -0.582842 -0.0340606 1.35378 -0.593025 -0.0390706 1.42799 -0.600555
-0.0445435 1.49351 -0.604038 -0.0503776 1.5354 -0.603043 -0.0565693 1.56528 -0.598277 -0.063153
1.6139 -0.591121 -0.0701201 1.64563 -0.58231 -0.077457 1.67422 -0.571465 -0.0850746 1.72057
-0.557702 -0.0928868 1.76936 -0.540634 -0.100954 1.80154 -0.520598 -0.109333 1.82196 -0.497041
-0.117907 1.85923 -0.468029 -0.126503 1.89042 -0.432208 -0.13515 1.89709 -0.389772 -0.143913
1.94814 -0.341082 -0.152784 1.97031 -0.285888 -0.161671 1.97136 -0.222799 -0.170396 2.00594
-0.152236 -0.17881 2.02301 -0.0734157 -0.186867 2.04399 0.0161398 -0.194577 2.04979 0.112447
-0.202073 2.05658 0.213519 -0.20941 2.06806 0.321664 -0.216368 2.05039 0.438578 -0.222785
2.02117 0.560342 -0.22878 1.99544 0.686901 -0.234347 2.0018 0.820295 -0.239351 1.99059
0.960683 -0.243629 1.95623 1.10624 -0.247234 1.94018 1.25269 -0.250221 1.91931 1.40309
-0.252514 1.90137 1.55846 -0.254507 1.84546 1.7151 -0.255638 1.80974 1.87107 -0.000348461
0 -0.0372406 0 16.6 0 -0.000694615 0 -0.0738251 -0.00104519 0
-0.10978 -0.00140683 0 -0.14517 -0.001786 0 -0.180021 -0.00218873 0 -0.214347
-0.00262122 0 -0.248114 -0.00308975 0.0529849 -0.281253 -0.00360116 0.242097 -0.313751 -0.00416275
0.419652 -0.345546 -0.00478378 0.471883 -0.376555 -0.00547365 0.481253 -0.40672 -0.00624474 0.477437
-0.435947 -0.00711221 0.467057 -0.464142 -0.00809121 0.486754 -0.491224 -0.00920392 0.586396 -0.516975
-0.0104764 0.703921 -0.541353 -0.0119365 0.782464 -0.564162 -0.013621 0.851571 -0.585319 -0.0155717
0.944391 -0.604664 -0.0178367 1.04366 -0.621914 -0.0204746 1.10297 -0.636838 -0.0235457 1.13989
-0.64904 -0.0271157 1.18764 -0.658687 -0.0312532 1.23322 -0.666084 -0.0359598 1.27526 -0.670397
-0.0411159 1.3132 -0.670352 -0.0466557 1.34511 -0.665955 -0.0525924 1.37816 -0.658858 -0.0589662
1.39131 -0.651155 -0.0657901 1.42138 -0.643984 -0.0730295 1.44511 -0.636722 -0.0805664 1.46792
-0.627521 -0.0883364 1.51966 -0.615493 -0.0964194 1.54589 -0.60041 -0.10485 1.56517 -0.581589
-0.113492 1.60466 -0.556306 -0.122189 1.63479 -0.522374 -0.13096 1.6676 -0.481836 -0.139845
1.73518 -0.434633 -0.14887 1.77413 -0.377708 -0.157933 1.78637 -0.312234 -0.166857 1.82339
-0.238787 -0.175499 1.86083 -0.154936 -0.183806 1.90102 -0.0588248 -0.191795 1.93648 0.0448212
-0.199561 1.95481 0.15516 -0.207194 1.98534 0.273744 -0.21447 2.00205 0.400764 -0.221263
2.00039 0.535393 -0.227623 2.01535 0.676967 -0.233524 2.03376 0.824771 -0.238924 2.05022
0.981115 -0.243709 2.06924 1.14323 -0.24784 2.06115 1.30819 -0.251251 2.06867 1.47775
-0.253993 2.08275 1.65131 -0.256459 2.06009 1.82774 -0.258055 2.06161 2.00742 -0.000327992
0 -0.044874 0 16.6 0 -0.000652951 0 -0.0886654 -0.000980834 0
-0.131389 -0.00131735 0 -0.17307 -0.00166787 0 -0.213771 -0.00203755 0 -0.253507
-0.00243182 0 -0.292225 -0.00285595 0.00206902 -0.329904 -0.00331566 0.133062 -0.366507 -0.0038177
0.337652 -0.401971 -0.00437076 0.437571 -0.436244 -0.00498318 0.466182 -0.469238 -0.0056662 0.468134
-0.500838 -0.00643395 0.459146 -0.530959 -0.00730363 0.449268 -0.559447 -0.00829548 0.510793 -0.586086
-0.00943208 0.650716 -0.610847 -0.0107444 0.783791 -0.633485 -0.0122702 0.866229 -0.653804 -0.0140493
0.909698 -0.671598 -0.0161311 0.965672 -0.686474 -0.0185742 1.01628 -0.698197 -0.0214378 1.04199
-0.706614 -0.0247886 1.08155 -0.712121 -0.0286974 1.12793 -0.715223 -0.0331742 1.16631 -0.714961
-0.0381082 1.18358 -0.710555 -0.0434487 1.19702 -0.703076 -0.0492322 1.22389 -0.695175 -0.0554979
1.22788 -0.689816 -0.0622467 1.2592 -0.687702 -0.0694439 1.28487 -0.687442 -0.0769832 1.2918
-0.686115 -0.0847943 1.32838 -0.681751 -0.0929401 1.35825 -0.674544 -0.101461 1.38955 -0.663921
-0.110213 1.43705 -0.646945 -0.119027 1.49742 -0.622192 -0.127916 1.53968 -0.589493 -0.136939
1.58346 -0.54807 -0.146127 1.66032 -0.497376 -0.155378 1.70814 -0.438323 -0.164507 1.75748
-0.367661 -0.173368 1.81226 -0.286113 -0.181925 1.86147 -0.191675 -0.190187 1.92537 -0.0871024
-0.198245 1.9822 0.0247362 -0.206191 2.02958 0.145725 -0.2138 2.07085 0.274849 -0.220953
2.12202 0.415222 -0.227694 2.18625 0.565158 -0.234032 2.23247 0.721447 -0.23982 2.26869
0.884564 -0.245051 2.31132 1.05566 -0.249613 2.31228 1.23326 -0.253439 2.35303 1.41526
-0.256703 2.40209 1.60262 -0.25962 2.41549 1.79194 -0.261682 2.45591 1.98944 -0.000306794
0 -0.0520758 0 16.6 0 -0.000609874 0 -0.102754 -0.000914562 0
-0.151999 -0.00122564 0 -0.199806 -0.00154753 0 -0.246184 -0.00188472 0 -0.29113
-0.00224172 0 -0.33459 -0.0026231 0 -0.376533 -0.00303384 0.0563057 -0.416904 -0.00347969
0.233181 -0.455661 -0.00396834 0.396009 -0.492722 -0.00450757 0.449212 -0.527968 -0.00510805 0.461324
-0.561289 -0.00578392 0.459209 -0.592549 -0.00655081 0.448657 -0.621666 -0.00742831 0.477266 -0.648288
-0.00844102 0.606124 -0.672372 -0.00961925 0.77016 -0.693806 -0.0109993 0.866789 -0.712087 -0.0126217
0.89698 -0.726953 -0.0145387 0.90961 -0.738244 -0.0168078 0.932137 -0.745625 -0.0194914 0.961655
-0.74915 -0.0226595 0.996178 -0.749396 -0.0263792 1.04363 -0.746864 -0.0306707 1.07356 -0.740839
-0.0354402 1.08026 -0.731406 -0.0406398 1.07954 -0.721406 -0.0463018 1.08314 -0.714792 -0.0524867
1.08274 -0.714485 -0.0591977 1.11463 -0.720223 -0.0663926 1.15425 -0.729551 -0.0739638 1.15207
-0.738846 -0.0818222 1.17478 -0.745641 -0.0900105 1.22167 -0.750972 -0.0985799 1.26286 -0.753358
-0.107413 1.31533 -0.749463 -0.116329 1.3941 -0.738125 -0.125328 1.45233 -0.716558 -0.134471
1.51118 -0.686439 -0.143784 1.59779 -0.649757 -0.153196 1.65874 -0.602825 -0.16251 1.72484
-0.542193 -0.171562 1.80548 -0.470564 -0.18033 1.87602 -0.385983 -0.188854 1.95679 -0.2885
-0.197181 2.05281 -0.182548 -0.205428 2.12047 -0.0683025 -0.213371 2.18785 0.058343 -0.220775
2.27139 0.196538 -0.227837 2.339 0.342198 -0.234619 2.40913 0.496961 -0.24084 2.48981
0.660997 -0.246424 2.55069 0.833543 -0.251376 2.59667 1.01357 -0.255686 2.66886 1.19875
-0.25941 2.73522 1.39043 -0.262862 2.79283 1.58484 -0.265493 2.85288 1.79102 -0.000286105
0 -0.0589767 0 16.6 0 -0.000568134 0 -0.116303 -0.000850659 0
-0.171854 -0.00113765 0 -0.225596 -0.00143298 0 -0.277478 -0.00174043 0 -0.327473
-0.00206349 0 -0.375503 -0.00240588 0 -0.42149 -0.0027721 0.00770073 -0.465379 -0.00316709
0.134647 -0.507089 -0.00359686 0.322049 -0.546543 -0.00407004 0.415893 -0.583593 -0.00459539 0.450708
-0.618103 -0.00518663 0.459781 -0.64988 -0.00585883 0.458888 -0.678831 -0.00663113 0.479126 -0.70467
-0.00753028 0.575602 -0.72724 -0.00858338 0.72661 -0.74634 -0.00982664 0.831828 -0.761577 -0.0113037
0.883835 -0.77271 -0.0130686 0.891379 -0.779339 -0.0151787 0.88484 -0.781295 -0.0176986 0.913856
-0.778767 -0.0207021 0.961916 -0.772344 -0.0242565 0.999812 -0.762734 -0.0283816 1.00307 -0.74994
-0.0329973 0.995145 -0.735129 -0.0380715 0.999178 -0.723299 -0.0436374 1.00933 -0.719693 -0.0497472
1.00027 -0.725784 -0.0564202 1.01572 -0.740461 -0.0636059 1.03692 -0.760954 -0.0711708 1.03934
-0.782836 -0.0790456 1.06331 -0.803348 -0.0872614 1.10412 -0.823207 -0.0958548 1.16194 -0.841561
-0.104735 1.22053 -0.854952 -0.113724 1.28417 -0.859547 -0.122807 1.34954 -0.854228 -0.132034
1.43365 -0.842514 -0.141436 1.52363 -0.823114 -0.150956 1.60264 -0.794652 -0.160418 1.67164
-0.753712 -0.169636 1.76272 -0.696714 -0.178574 1.87495 -0.628362 -0.187293 1.97889 -0.548119
-0.195831 2.08892 -0.453513 -0.204286 2.1706 -0.352233 -0.212507 2.27032 -0.238366 -0.220192
2.37581 -0.11035 -0.227496 2.46607 0.0242228 -0.234555 2.54852 0.170348 -0.241181 2.64578
0.32886 -0.24712 2.75481 0.495095 -0.252437 2.85185 0.668528 -0.257217 2.95085 0.852446
-0.261362 3.02017 1.04408 -0.265262 3.10247 1.23517 -0.268406 3.1824 1.44156 -0.000266735
0 -0.065558 0 16.6 0 -0.000529348 0 -0.12925 -0.000791757 0
-0.190856 -0.00105729 0 -0.250276 -0.00132937 0 -0.307427 -0.00161118 0 -0.362238
-0.00190524 0 -0.414573 -0.00221431 0 -0.464345 -0.00254199 0 -0.511472 -0.00289261
0.0589348 -0.55581 -0.00327103 0.214746 -0.597278 -0.0036853 0.368966 -0.635732 -0.00414435 0.437882
-0.670969 -0.00465897 0.454642 -0.70282 -0.00524395 0.462843 -0.731054 -0.00591979 0.488378 -0.755462
-0.00671147 0.566575 -0.775838 -0.00764668 0.666932 -0.791897 -0.00876128 0.753913 -0.803229 -0.0101012
0.831838 -0.809697 -0.0117192 0.865337 -0.810876 -0.0136745 0.860959 -0.806476 -0.0160363 0.871901
-0.796922 -0.0188787 0.901467 -0.782689 -0.0222688 0.92426 -0.764773 -0.0262294 0.917018 -0.743645
-0.0306902 0.901869 -0.722666 -0.0356298 0.914563 -0.709094 -0.0410957 0.927116 -0.708457 -0.0471248
0.915719 -0.720988 -0.0537323 0.918289 -0.744756 -0.0608673 0.917832 -0.777036 -0.0683957 0.925555
-0.812764 -0.0762556 0.941064 -0.848719 -0.0844647 0.969642 -0.885355 -0.0930687 1.03588 -0.922431
-0.101963 1.07313 -0.955397 -0.110967 1.13079 -0.981319 -0.120074 1.20611 -0.998247 -0.129349
1.28379 -1.00747 -0.138829 1.38954 -1.01043 -0.148402 1.48304 -1.00675 -0.157921 1.56981
-0.99128 -0.167244 1.6665 -0.955903 -0.176293 1.76744 -0.908098 -0.185122 1.878 -0.850165
-0.193809 2.01136 -0.77673 -0.202397 2.12586 -0.695224 -0.210765 2.24126 -0.602229 -0.218695
2.35956 -0.492888 -0.226216 2.49277 -0.373561 -0.233431 2.60681 -0.24256 -0.2403 2.70776
-0.100514 -0.246588 2.8418 0.0520822 -0.252244 2.96502 0.216206 -0.257367 3.08348 0.391903
-0.261964 3.19322 0.576014 -0.266258 3.29534 0.758009 -0.269815 3.38007 0.957944 -0.000249128
0 -0.0717711 0 16.6 0 -0.000494187 0 -0.141472 -0.000738814 0
-0.208793 -0.000986127 0 -0.273557 -0.00123875 0 -0.335615 -0.00149917 0 -0.39484
-0.00176935 0 -0.451104 -0.00205102 0 -0.504286 -0.00234691 0 -0.554224 -0.00266003
0.01039 -0.600765 -0.0029948 0.11868 -0.643803 -0.00335774 0.295014 -0.683151 -0.00375713 0.403742
-0.718599 -0.00420323 0.441699 -0.749983 -0.00471037 0.45236 -0.777094 -0.0052975 0.479094 -0.799688
-0.00598866 0.556952 -0.817297 -0.00681308 0.637131 -0.829747 -0.00780565 0.692142 -0.836557 -0.00901186
0.751109 -0.837632 -0.0104847 0.791903 -0.832686 -0.0122861 0.805459 -0.821211 -0.0144865 0.811288
-0.803484 -0.0171602 0.832209 -0.780037 -0.0203737 0.852652 -0.752181 -0.02416 0.83526 -0.721058
-0.0284574 0.811624 -0.693048 -0.0332594 0.802657 -0.676966 -0.0386086 0.781431 -0.677817 -0.0445282
0.767457 -0.695531 -0.0510335 0.759383 -0.727781 -0.0580723 0.754106 -0.771347 -0.0655439 0.756237
-0.820368 -0.0733551 0.768985 -0.871875 -0.0815197 0.811494 -0.92692 -0.090101 0.846 -0.984055
-0.0989673 0.856622 -1.03778 -0.107956 0.909281 -1.08622 -0.11705 0.996039 -1.12796 -0.12632
1.07935 -1.16346 -0.135811 1.16882 -1.19384 -0.145397 1.26216 -1.21789 -0.154926 1.36724
-1.2312 -0.164259 1.46796 -1.22573 -0.173337 1.55462 -1.20627 -0.182216 1.66378 -1.17471
-0.190971 1.80911 -1.1288 -0.199612 1.96126 -1.07383 -0.208017 2.08222 -1.00616 -0.216055
2.20598 -0.921525 -0.223719 2.36533 -0.824786 -0.231052 2.50683 -0.714436 -0.238069 2.65088
-0.592171 -0.244574 2.79307 -0.457441 -0.250429 2.92442 -0.308817 -0.255765 3.0641 -0.147664
-0.260621 3.18812 0.0249378 -0.265167 3.32665 0.195094 -0.269154 3.44124 0.387001 -0.000233761
0 -0.0773492 0 16.6 0 -0.00046363 0 -0.1524 -0.000693155 0
-0.224747 -0.000925208 0 -0.294155 -0.00116179 0 -0.360435 -0.00140475 0 -0.423403
-0.0016555 0 -0.482919 -0.00191482 0 -0.538816 -0.00218458 0 -0.590886 -0.00246663
0 -0.63899 -0.00276471 0.0490433 -0.68293 -0.00308432 0.183476 -0.722556 -0.00343254 0.325864
-0.757767 -0.00381887 0.408759 -0.788242 -0.00425821 0.435631 -0.813702 -0.00476834 0.452169 -0.833998
-0.00537074 0.514944 -0.848599 -0.00609512 0.60454 -0.857295 -0.00697785 0.667204 -0.859646 -0.00806196
0.699813 -0.855339 -0.00940176 0.71084 -0.843803 -0.0110577 0.704863 -0.824867 -0.0130985 0.698002
-0.798618 -0.0156051 0.72214 -0.765119 -0.0186392 0.749941 -0.726214 -0.0222354 0.730655 -0.684449
-0.026361 0.690121 -0.648228 -0.0310231 0.656882 -0.627428 -0.0362467 0.61255 -0.62731 -0.0420408
0.584548 -0.648152 -0.0484184 0.567492 -0.687257 -0.055364 0.54762 -0.740728 -0.0627563 0.539008
-0.802096 -0.0704813 0.541381 -0.868235 -0.0785878 0.562165 -0.940295 -0.0871227 0.581297 -1.01632
-0.0959416 0.590151 -1.09143 -0.104886 0.622603 -1.16205 -0.113955 0.70592 -1.22816 -0.123197
0.789074 -1.29103 -0.132642 0.86647 -1.34979 -0.142188 0.949503 -1.4038 -0.151695 1.04349
-1.44712 -0.16101 1.15523 -1.47302 -0.170067 1.25786 -1.48608 -0.178934 1.3725 -1.48734
-0.187666 1.5272 -1.47349 -0.196291 1.69267 -1.45121 -0.204686 1.81718 -1.41461 -0.212728
1.95419 -1.35806 -0.220406 2.12013 -1.28873 -0.227782 2.27518 -1.204 -0.234859 2.44899
-1.10578 -0.241405 2.61748 -0.991355 -0.247342 2.77192 -0.861142 -0.2528 2.92198 -0.715794
-0.257804 3.05764 -0.554668 -0.262495 3.22242 -0.39696 -0.266705 3.37399 -0.21171 -0.00022062
0 -0.0820697 0 16.6 0 -0.000437604 0 -0.161599 -0.000654439 0
-0.238116 -0.000873493 0 -0.311311 -0.00109644 0 -0.380945 -0.00132457 0 -0.446818
-0.00155857 0 -0.508756 -0.00179875 0 -0.566561 -0.00204599 0 -0.620042 -0.0023017
0 -0.669032 -0.00256888 0.008445 -0.713322 -0.00285214 0.0792439 -0.752841 -0.00315824 0.216202
-0.787421 -0.0034964 0.337722 -0.816713 -0.00388028 0.396602 -0.840254 -0.00432746 0.421885 -0.858015
-0.00485922 0.465222 -0.86972 -0.00550346 0.550996 -0.87484 -0.00629454 0.637473 -0.873051 -0.00727777
0.668525 -0.86381 -0.00850627 0.666164 -0.846318 -0.010035 0.644294 -0.820342 -0.0119344 0.615157
-0.785835 -0.0142853 0.607631 -0.742831 -0.0171465 0.621955 -0.693143 -0.020555 0.612019 -0.640563
-0.0245086 0.555969 -0.59521 -0.0290269 0.511369 -0.56801 -0.0341231 0.453816 -0.565063 -0.0398021
0.401206 -0.5872 -0.0460677 0.369656 -0.631487 -0.0529204 0.338457 -0.693326 -0.0602289 0.320046
-0.765691 -0.067889 0.297094 -0.844708 -0.0759437 0.283259 -0.931432 -0.0844192 0.295262 -1.02423
-0.0931805 0.31655 -1.11772 -0.10207 0.342148 -1.20891 -0.111114 0.407723 -1.29698 -0.120326
0.471112 -1.38264 -0.129718 0.540384 -1.46834 -0.139211 0.631767 -1.55152 -0.148667 0.715765