# vtk DataFile Version 2.0
sampleSurface
ASCII
DATASET POLYDATA
POINTS 17673 float
0.04 -0.184464 -0.06 0.04 -0.184464 -0.0559273 0.04 -0.188453 -0.0559273 0.04 -0.188453
-0.06 0.04 -0.180475 -0.06 0.04 -0.180475 -0.0559273 0.04 -0.176486 -0.06
0.04 -0.176486 -0.0559273 0.04 -0.172497 -0.06 0.04 -0.172497 -0.0559273 0.04
-0.168508 -0.06 0.04 -0.168508 -0.0559273 0.04 -0.164519 -0.06 0.04 -0.164519
-0.0559273 0.04 -0.16053 -0.06 0.04 -0.16053 -0.0559273 0.04 -0.156541 -0.06
0.04 -0.156541 -0.0559273 0.04 -0.152552 -0.06 0.04 -0.152552 -0.0559273 0.04
-0.148563 -0.06 0.04 -0.148563 -0.0559273 0.04 -0.144574 -0.06 0.04 -0.144574
-0.0559273 0.04 -0.140586 -0.06 0.04 -0.140586 -0.0559273 0.04 -0.136596 -0.06
0.04 -0.136596 -0.0559273 0.04 -0.132607 -0.06 0.04 -0.132607 -0.0559273 0.04
-0.128619 -0.06 0.04 -0.128619 -0.0559273 0.04 -0.12463 -0.06 0.04 -0.12463
-0.0559273 0.04 -0.120641 -0.06 0.04 -0.120641 -0.0559273 0.04 -0.116652 -0.06
0.04 -0.116652 -0.0559273 0.04 -0.112663 -0.06 0.04 -0.112663 -0.0559273 0.04
-0.108674 -0.06 0.04 -0.108674 -0.0559273 0.04 -0.104685 -0.06 0.04 -0.104685
-0.0559273 0.04 -0.100696 -0.06 0.04 -0.100696 -0.0559273 0.04 -0.0967069 -0.06
0.04 -0.0967069 -0.0559273 0.04 -0.0927179 -0.06 0.04 -0.0927179 -0.0559273 0.04
-0.088739 -0.06 0.04 -0.0887391 -0.0559273 0.04 -0.0847775 -0.06 0.04 -0.0847775
-0.0559273 0.04 -0.0809835 -0.06 0.04 -0.0809835 -0.0559273 0.04 -0.0773956 -0.06
0.04 -0.0773956 -0.0559273 0.04 -0.0739968 -0.06 0.04 -0.0739968 -0.0559273 0.04
-0.0707629 -0.06 0.04 -0.0707629 -0.0559273 0.04 -0.0676784 -0.06 0.04 -0.0676784
-0.0559273 0.04 -0.0647301 -0.06 0.04 -0.0647301 -0.0559273 0.04 -0.0619431 -0.06
0.04 -0.0619431 -0.0559273 0.04 -0.0593321 -0.06 0.04 -0.0593321 -0.0559273 0.04
-0.0568459 -0.06 0.04 -0.0568459 -0.0559273 0.04 -0.0544545 -0.06 0.04 -0.0544545
-0.0559273 0.04 -0.0521732 -0.06 0.04 -0.0521732 -0.0559273 0.04 -0.0500374 -0.06
0.04 -0.0500374 -0.0559273 0.04 -0.0480123 -0.06 0.04 -0.0480123 -0.0559273 0.04
-0.046084 -0.06 0.04 -0.046084 -0.0559273 0.04 -0.0442254 -0.06 0.04 -0.0442254
-0.0559273 0.04 -0.0424486 -0.06 0.04 -0.0424486 -0.0559273 0.04 -0.0407648 -0.06
0.04 -0.0407648 -0.0559273 0.04 -0.0391821 -0.06 0.04 -0.0391821 -0.0559273 0.04
-0.0376993 -0.06 0.04 -0.0376993 -0.0559273 0.04 -0.0362943 -0.06 0.04 -0.0362943
-0.0559273 0.04 -0.0349524 -0.06 0.04 -0.0349524 -0.0559273 0.04 -0.0336651 -0.06
0.04 -0.0336651 -0.0559273 0.04 -0.0324289 -0.06 0.04 -0.0324289 -0.0559273 0.04
-0.0312728 -0.06 0.04 -0.0312728 -0.0559273 0.04 -0.0301752 -0.06 0.04 -0.0301752
-0.0559273 0.04 -0.0291177 -0.06 0.04 -0.0291177 -0.0559273 0.04 -0.0281145 -0.06
0.04 -0.0281145 -0.0559273 0.04 -0.0271661 -0.06 0.04 -0.0271661 -0.0559273 0.04
-0.0262754 -0.06 0.04 -0.0262754 -0.0559273 0.04 -0.02543 -0.06 0.04 -0.02543
-0.0559273 0.04 -0.0246256 -0.06 0.04 -0.0246256 -0.0559273 0.04 -0.0238573 -0.06
0.04 -0.0238573 -0.0559273 0.04 -0.023094 -0.0559273 0.04 -0.023094 -0.06 0.04
-0.184464 -0.0519514 0.04 -0.188453 -0.0519514 0.04 -0.180475 -0.0519514 0.04 -0.176486
-0.0519514 0.04 -0.172497 -0.0519514 0.04 -0.168508 -0.0519514 0.04 -0.164519 -0.0519514
0.04 -0.16053 -0.0519514 0.04 -0.156541 -0.0519514 0.04 -0.152552 -0.0519514 0.04
-0.148563 -0.0519514 0.04 -0.144574 -0.0519514 0.04 -0.140586 -0.0519514 0.04 -0.136596
-0.0519514 0.04 -0.132607 -0.0519514 0.04 -0.128619 -0.0519514 0.04 -0.12463 -0.0519514
0.04 -0.120641 -0.0519514 0.04 -0.116652 -0.0519514 0.04 -0.112663 -0.0519514 0.04
-0.108674 -0.0519514 0.04 -0.104685 -0.0519514 0.04 -0.100696 -0.0519514 0.04 -0.0967069
-0.0519514 0.04 -0.0927179 -0.0519514 0.04 -0.088739 -0.0519514 0.04 -0.0847775 -0.0519514
0.04 -0.0809835 -0.0519514 0.04 -0.0773956 -0.0519514 0.04 -0.0739968 -0.0519514 0.04
-0.0707629 -0.0519514 0.04 -0.0676784 -0.0519514 0.04 -0.0647301 -0.0519514 0.04 -0.0619431
-0.0519514 0.04 -0.0593321 -0.0519514 0.04 -0.0568459 -0.0519514 0.04 -0.0544545 -0.0519514
0.04 -0.0521732 -0.0519514 0.04 -0.0500374 -0.0519514 0.04 -0.0480123 -0.0519514 0.04
-0.046084 -0.0519514 0.04 -0.0442254 -0.0519514 0.04 -0.0424486 -0.0519514 0.04 -0.0407648
-0.0519514 0.04 -0.0391821 -0.0519514 0.04 -0.0376993 -0.0519514 0.04 -0.0362943 -0.0519514
0.04 -0.0349524 -0.0519514 0.04 -0.0336651 -0.0519514 0.04 -0.0324289 -0.0519514 0.04
-0.0312728 -0.0519514 0.04 -0.0301752 -0.0519514 0.04 -0.0291177 -0.0519514 0.04 -0.0281145
-0.0519514 0.04 -0.0271661 -0.0519514 0.04 -0.0262754 -0.0519514 0.04 -0.02543 -0.0519514
0.04 -0.0246256 -0.0519514 0.04 -0.0238573 -0.0519514 0.04 -0.023094 -0.0519514 0.04
-0.184464 -0.0479754 0.04 -0.188453 -0.0479754 0.04 -0.180475 -0.0479754 0.04 -0.176486
-0.0479754 0.04 -0.172497 -0.0479754 0.04 -0.168508 -0.0479754 0.04 -0.164519 -0.0479754
0.04 -0.16053 -0.0479754 0.04 -0.156541 -0.0479754 0.04 -0.152552 -0.0479754 0.04
-0.148563 -0.0479754 0.04 -0.144574 -0.0479754 0.04 -0.140586 -0.0479754 0.04 -0.136596
-0.0479754 0.04 -0.132607 -0.0479754 0.04 -0.128619 -0.0479754 0.04 -0.12463 -0.0479754
0.04 -0.120641 -0.0479754 0.04 -0.116652 -0.0479754 0.04 -0.112663 -0.0479754 0.04
-0.108674 -0.0479754 0.04 -0.104685 -0.0479754 0.04 -0.100696 -0.0479754 0.04 -0.0967069
-0.0479754 0.04 -0.0927179 -0.0479754 0.04 -0.0887391 -0.0479754 0.04 -0.0847775 -0.0479754
0.04 -0.0809835 -0.0479754 0.04 -0.0773956 -0.0479754 0.04 -0.0739968 -0.0479754 0.04
-0.0707629 -0.0479754 0.04 -0.0676784 -0.0479754 0.04 -0.0647301 -0.0479754 0.04 -0.0619431
-0.0479754 0.04 -0.0593321 -0.0479754 0.04 -0.0568459 -0.0479754 0.04 -0.0544545 -0.0479754
0.04 -0.0521732 -0.0479754 0.04 -0.0500374 -0.0479754 0.04 -0.0480123 -0.0479754 0.04
-0.046084 -0.0479754 0.04 -0.0442254 -0.0479754 0.04 -0.0424486 -0.0479754 0.04 -0.0407648
-0.0479754 0.04 -0.0391821 -0.0479754 0.04 -0.0376993 -0.0479754 0.04 -0.0362943 -0.0479754
0.04 -0.0349524 -0.0479754 0.04 -0.0336651 -0.0479754 0.04 -0.0324289 -0.0479754 0.04
-0.0312728 -0.0479754 0.04 -0.0301752 -0.0479754 0.04 -0.0291177 -0.0479754 0.04 -0.0281145
-0.0479754 0.04 -0.0271661 -0.0479754 0.04 -0.0262754 -0.0479754 0.04 -0.02543 -0.0479754
0.04 -0.0246256 -0.0479754 0.04 -0.0238573 -0.0479754 0.04 -0.023094 -0.0479754 0.04
-0.184464 -0.0439994 0.04 -0.188453 -0.0439994 0.04 -0.180475 -0.0439994 0.04 -0.176486
-0.0439994 0.04 -0.172497 -0.0439994 0.04 -0.168508 -0.0439994 0.04 -0.164519 -0.0439994
0.04 -0.16053 -0.0439994 0.04 -0.156541 -0.0439994 0.04 -0.152552 -0.0439994 0.04
-0.148563 -0.0439994 0.04 -0.144574 -0.0439994 0.04 -0.140586 -0.0439994 0.04 -0.136596
-0.0439994 0.04 -0.132607 -0.0439994 0.04 -0.128619 -0.0439994 0.04 -0.12463 -0.0439994
0.04 -0.120641 -0.0439994 0.04 -0.116652 -0.0439994 0.04 -0.112663 -0.0439994 0.04
-0.108674 -0.0439994 0.04 -0.104685 -0.0439994 0.04 -0.100696 -0.0439994 0.04 -0.0967069
-0.0439994 0.04 -0.0927179 -0.0439994 0.04 -0.0887391 -0.0439994 0.04 -0.0847775 -0.0439994
0.04 -0.0809835 -0.0439994 0.04 -0.0773956 -0.0439994 0.04 -0.0739968 -0.0439994 0.04
-0.0707629 -0.0439994 0.04 -0.0676784 -0.0439994 0.04 -0.0647301 -0.0439994 0.04 -0.0619431
-0.0439994 0.04 -0.0593321 -0.0439994 0.04 -0.0568459 -0.0439994 0.04 -0.0544545 -0.0439994
0.04 -0.0521732 -0.0439994 0.04 -0.0500374 -0.0439994 0.04 -0.0480123 -0.0439994 0.04
-0.046084 -0.0439994 0.04 -0.0442254 -0.0439994 0.04 -0.0424486 -0.0439994 0.04 -0.0407648
-0.0439994 0.04 -0.0391821 -0.0439994 0.04 -0.0376993 -0.0439994 0.04 -0.0362943 -0.0439994
0.04 -0.0349524 -0.0439994 0.04 -0.0336651 -0.0439994 0.04 -0.0324289 -0.0439994 0.04
-0.0312728 -0.0439994 0.04 -0.0301752 -0.0439994 0.04 -0.0291177 -0.0439994 0.04 -0.0281145
-0.0439994 0.04 -0.0271661 -0.0439994 0.04 -0.0262754 -0.0439994 0.04 -0.02543 -0.0439994
0.04 -0.0246256 -0.0439994 0.04 -0.0238573 -0.0439994 0.04 -0.023094 -0.0439994 0.04
-0.184464 -0.0400235 0.04 -0.188453 -0.0400235 0.04 -0.180475 -0.0400235 0.04 -0.176486
-0.0400235 0.04 -0.172497 -0.0400235 0.04 -0.168508 -0.0400235 0.04 -0.164519 -0.0400235
0.04 -0.16053 -0.0400235 0.04 -0.156541 -0.0400235 0.04 -0.152552 -0.0400235 0.04
-0.148563 -0.0400235 0.04 -0.144574 -0.0400235 0.04 -0.140586 -0.0400235 0.04 -0.136596
-0.0400235 0.04 -0.132607 -0.0400235 0.04 -0.128619 -0.0400235 0.04 -0.12463 -0.0400235
0.04 -0.120641 -0.0400235 0.04 -0.116652 -0.0400235 0.04 -0.112663 -0.0400235 0.04
-0.108674 -0.0400235 0.04 -0.104685 -0.0400235 0.04 -0.100696 -0.0400235 0.04 -0.0967069
-0.0400235 0.04 -0.0927179 -0.0400235 0.04 -0.088739 -0.0400235 0.04 -0.0847775 -0.0400235
0.04 -0.0809835 -0.0400235 0.04 -0.0773956 -0.0400235 0.04 -0.0739968 -0.0400235 0.04
-0.0707629 -0.0400235 0.04 -0.0676784 -0.0400235 0.04 -0.0647301 -0.0400235 0.04 -0.0619431
-0.0400235 0.04 -0.0593321 -0.0400235 0.04 -0.0568459 -0.0400235 0.04 -0.0544545 -0.0400235
0.04 -0.0521732 -0.0400235 0.04 -0.0500374 -0.0400235 0.04 -0.0480123 -0.0400235 0.04
-0.046084 -0.0400235 0.04 -0.0442254 -0.0400235 0.04 -0.0424486 -0.0400235 0.04 -0.0407648
-0.0400235 0.04 -0.0391821 -0.0400235 0.04 -0.0376993 -0.0400235 0.04 -0.0362943 -0.0400235
0.04 -0.0349524 -0.0400235 0.04 -0.0336651 -0.0400235 0.04 -0.0324289 -0.0400235 0.04
-0.0312728 -0.0400235 0.04 -0.0301752 -0.0400235 0.04 -0.0291177 -0.0400235 0.04 -0.0281145
-0.0400235 0.04 -0.0271661 -0.0400235 0.04 -0.0262754 -0.0400235 0.04 -0.02543 -0.0400235
0.04 -0.0246256 -0.0400235 0.04 -0.0238573 -0.0400235 0.04 -0.023094 -0.0400235 0.04
-0.184464 -0.0360475 0.04 -0.188453 -0.0360475 0.04 -0.180475 -0.0360475 0.04 -0.176486
-0.0360475 0.04 -0.172497 -0.0360475 0.04 -0.168508 -0.0360475 0.04 -0.164519 -0.0360475
0.04 -0.16053 -0.0360475 0.04 -0.156541 -0.0360475 0.04 -0.152552 -0.0360475 0.04
-0.148563 -0.0360475 0.04 -0.144574 -0.0360475 0.04 -0.140586 -0.0360475 0.04 -0.136596
-0.0360475 0.04 -0.132607 -0.0360475 0.04 -0.128619 -0.0360475 0.04 -0.12463 -0.0360475
0.04 -0.120641 -0.0360475 0.04 -0.116652 -0.0360475 0.04 -0.112663 -0.0360475 0.04
-0.108674 -0.0360475 0.04 -0.104685 -0.0360475 0.04 -0.100696 -0.0360475 0.04 -0.0967069
[...]
POINT_DATA 17673
FIELD attributes 1
Mode7 3 17673 float
0 0 0 -0.000110146 0 -0.00102057 0 16.6 0 0 8.25622
0 0 0 0 -0.000227895 0 -0.00208767 0 0 0
-0.000354622 0.00641995 -0.00320134 0 0 0 -0.000493184 -0.0145409 -0.00435716 0
0 0 -0.000647353 -0.0209608 -0.00552608 0 0 0 -0.000821474 0.0320456
-0.00671547 0 0 0 -0.00102054 0.0320456 -0.0079446 0 0 0
-0.00125081 0.0316902 -0.00915031 0 0 0 -0.00151924 0.0583482 -0.0103532 0
0 0 -0.00183318 0.0925492 -0.0116015 0 0 0 -0.00220138 0.104268
-0.0128983 0 0 0 -0.00263657 0.117956 -0.0142801 0 0 0
-0.00315212 0.0920585 -0.015637 0 0 0 -0.00376281 0.065771 -0.0169813 0
0 0 -0.00448787 0.0842265 -0.0184451 0 0 0 -0.00535021 0.0942473
-0.0199537 0 0 0 -0.0063767 0.0796411 -0.0215176 0 0 0
-0.00759873 0.0612286 -0.0232169 0 0 0 -0.00905624 0.0463548 -0.0251439 0
0 0 -0.010796 0.0437344 -0.0273719 0 0 0 -0.0128742 0.173559
-0.0296543 0 0 0 -0.0153562 0.278086 -0.0315656 0 0 0
-0.0183205 0.259955 -0.0329952 0 0 0 -0.0218566 0.221402 -0.0338838 0
0 0 -0.0260628 0.2311 -0.0341289 0 0 0 -0.0310121 0.240161
-0.0337147 0 0 0 -0.036662 0.297283 -0.0327578 0 0 0
-0.0429765 0.319974 -0.0314847 0 0 0 -0.0499469 0.285313 -0.0302092 0
0 0 -0.0576038 0.316881 -0.0292443 0 0 0 -0.066002 0.360658
-0.0289603 0 0 0 -0.0751051 0.418251 -0.0293712 0 0 0
-0.0848221 0.467565 -0.0300203 0 0 0 -0.0950996 0.492021 -0.0306686 0
0 0 -0.105981 0.487263 -0.031268 0 0 0 -0.117528 0.515956
-0.0319148 0 0 0 -0.129616 0.493832 -0.0328425 0 0 0
-0.142075 0.468485 -0.0336608 0 0 0 -0.154909 0.55352 -0.0339511 0
0 0 -0.168149 0.561919 -0.0341891 0 0 0 -0.181831 0.566328
-0.0345013 0 0 0 -0.195849 0.582729 -0.0344785 0 0 0
-0.21002 0.569754 -0.033901 0 0 0 -0.224169 0.601669 -0.0331494 0
0 0 -0.23823 0.649535 -0.0324053 0 0 0 -0.252298 0.713922
-0.0310685 0 0 0 -0.266339 0.708934 -0.0293496 0 0 0
-0.280363 0.66569 -0.0281547 0 0 0 -0.29432 0.691828 -0.0269973 0
0 0 -0.307995 0.67729 -0.0248738 0 0 0 -0.321412 0.663369
-0.0226532 0 0 0 -0.33462 0.713152 -0.0206088 0 0 0
-0.34755 0.762531 -0.0180011 0 0 0 -0.36002 0.817398 -0.0153166 0
0 0 -0.371977 0.760318 -0.0124783 0 0 0 -0.383539 0.711479
-0.00888223 0 0 0 -0.394612 0.763138 -0.00542757 0 0 0
-0.405318 0.762884 -0.00159105 -0.415787 0.789964 0.00306851 0 0 0 -0.000107709
0 -0.00124075 0 16.6 0 -0.000223455 0 -0.00260618 -0.000348379 0.00639395
-0.00398594 -0.000484949 0.00639394 -0.00548545 -0.000636668 0 -0.00701785 -0.000807669 0.00531818 -0.0086013
-0.00100276 -0.0172031 -0.0102863 -0.00122796 0.00966001 -0.0119137 -0.00148925 0.0646408 -0.0135698 -0.00179378
0.0850985 -0.0153755 -0.00215078 0.0968743 -0.0172444 -0.00257171 0.0938925 -0.0192212 -0.00306895 0.0745959
-0.0212573 -0.00365747 0.0404242 -0.0232665 -0.00435389 0.0276232 -0.0254442 -0.0051788 0.0255582 -0.0276904
-0.00616131 0.0188639 -0.0299509 -0.00733136 -0.00887033 -0.0324025 -0.00872364 -0.027885 -0.0349526 -0.0103861
0.0358636 -0.0375398 -0.012371 0.156479 -0.0402672 -0.014739 0.191886 -0.0430555 -0.0175716 0.164405
-0.0458603 -0.0209508 0.124282 -0.0487064 -0.0249744 0.083578 -0.0516425 -0.0297247 0.11243 -0.0545072
-0.0351394 0.190422 -0.0571886 -0.0411842 0.20393 -0.0597697 -0.0478675 0.198354 -0.0622926 -0.0552192
0.204197 -0.065122 -0.0632782 0.253909 -0.0679674 -0.07202 0.290596 -0.0703268 -0.081368 0.325372
-0.0722162 -0.0912503 0.353864 -0.0737889 -0.101705 0.370812 -0.0755113 -0.112801 0.410507 -0.0775587
-0.124421 0.397794 -0.0792645 -0.136415 0.453253 -0.0805454 -0.148777 0.492818 -0.0817898 -0.16153
0.418941 -0.0826175 -0.174714 0.417954 -0.0831034 -0.188249 0.498217 -0.0830583 -0.201957 0.535268
-0.0823661 -0.215674 0.539306 -0.0811053 -0.229314 0.535798 -0.0796502 -0.242921 0.568432 -0.078217
-0.256527 0.563273 -0.0758162 -0.270192 0.555746 -0.0736397 -0.283781 0.60143 -0.0713478 -0.297031
0.583284 -0.0685019 -0.310103 0.578213 -0.0649964 -0.323087 0.63193 -0.0614637 -0.335818 0.677527
-0.0574997 -0.348137 0.719478 -0.0532845 -0.359949 0.661194 -0.0491578 -0.371393 0.611946 -0.0440866
-0.3824 0.654559 -0.0389957 -0.393114 0.711323 -0.031959 -0.403477 0.734349 -0.0232864 -0.000110831
0 -0.00166493 0 16.6 0 -0.0002265 0 -0.00344911 -0.000350077 0
-0.00529084 -0.000484866 0 -0.00727373 -0.000634461 0 -0.00927821 -0.000802702 0.00531819 -0.0113488
-0.000994255 -0.0105153 -0.0135905 -0.00121449 0.00968335 -0.0157934 -0.00146934 0.042834 -0.0180096 -0.00176625
0.0283325 -0.0204094 -0.00211461 0.0695655 -0.0229215 -0.00252337 0.11996 -0.0254776 -0.00300477 0.115522
-0.0281266 -0.00357537 0.105446 -0.0307929 -0.00424941 0.0902281 -0.033613 -0.00504824 0.0717451 -0.0365607
-0.00599995 0.0651627 -0.0395597 -0.00713304 0.0561853 -0.0427131 -0.00848191 0.0390136 -0.0459038 -0.0100917
0.080919 -0.0491549 -0.0120127 0.128681 -0.0526453 -0.0143069 0.104119 -0.0564225 -0.0170529 0.12978
-0.0604817 -0.0203343 0.161993 -0.0649154 -0.0242478 0.13382 -0.0699086 -0.02887 0.156499 -0.0750467
-0.0341337 0.223597 -0.0800596 -0.0399975 0.226884 -0.0850849 -0.046491 0.226994 -0.0899705 -0.0536385
0.276596 -0.0948293 -0.0614611 0.324692 -0.099381 -0.0699584 0.289183 -0.102937 -0.0790389 0.299413
-0.105884 -0.0886339 0.335418 -0.108796 -0.0988018 0.360269 -0.111923 -0.109593 0.391014 -0.114557
-0.12091 0.378625 -0.116584 -0.13262 0.436244 -0.118196 -0.144725 0.409322 -0.119295 -0.157253
0.358427 -0.120305 -0.170252 0.414576 -0.120885 -0.183638 0.482788 -0.120314 -0.197229 0.543637
-0.119994 -0.210874 0.510402 -0.119182 -0.224494 0.463968 -0.11672 -0.238079 0.49958 -0.114426
-0.251724 0.530811 -0.111801 -0.265491 0.570922 -0.109184 -0.279234 0.574016 -0.106036 -0.292675
0.504643 -0.103427 -0.305988 0.497232 -0.0996443 -0.319233 0.553784 -0.0936134 -0.332186 0.596987
-0.0884227 -0.344767 0.652016 -0.0837129 -0.35692 0.606012 -0.076683 -0.368703 0.561726 -0.0672204
-0.38006 0.635725 -0.0632324 -0.391184 0.655119 -0.0565942 -0.401852 0.616896 -0.0428763 -0.000109705
0 -0.00229736 0 16.6 0 -0.000223767 0 -0.00464633 -0.000345364 0
-0.00705801 -0.000477725 0 -0.00958621 -0.000624246 0 -0.0121924 -0.000788935 0 -0.0148843
-0.000975817 0.00668778 -0.0176715 -0.00118995 0.00784682 -0.0204526 -0.001438 -0.0227761 -0.0232839 -0.00172621
-0.0487955 -0.0262452 -0.00206245 -0.00406257 -0.0292892 -0.00245704 0.0385065 -0.0324631 -0.00292234 0.0848001
-0.0356948 -0.00347146 0.139317 -0.0389918 -0.00412069 0.137888 -0.0424545 -0.00489216 0.117836 -0.0460631
-0.00580833 0.100988 -0.0497866 -0.0068979 0.104671 -0.0535744 -0.00819646 0.101132 -0.057458 -0.00974443
0.0817355 -0.061534 -0.0115931 0.0795375 -0.0657782 -0.0138055 0.0744122 -0.070445 -0.0164523 0.103204
-0.0756192 -0.0196121 0.145493 -0.0812888 -0.0233759 0.189846 -0.0875016 -0.0278136 0.208588 -0.0939056
-0.0328766 0.226463 -0.100371 -0.0385231 0.216378 -0.106617 -0.0447672 0.22102 -0.111953 -0.0516485
0.297786 -0.117345 -0.0591766 0.282464 -0.122927 -0.0673307 0.255164 -0.127863 -0.0760484 0.291748
-0.132358 -0.085316 0.324886 -0.1367 -0.0951939 0.337312 -0.141361 -0.105721 0.33288 -0.145197
-0.116839 0.337437 -0.148427 -0.128391 0.412542 -0.1516 -0.140371 0.393655 -0.153276 -0.152849
0.347696 -0.154411 -0.165856 0.416689 -0.156316 -0.179291 0.445359 -0.156776 -0.193008 0.482017
-0.156627 -0.206845 0.50458 -0.154995 -0.220716 0.46034 -0.149417 -0.234623 0.467856 -0.149108
-0.248653 0.518324 -0.150268 -0.262887 0.561233 -0.145367 -0.277135 0.512063 -0.13963 -0.291216
0.449738 -0.137817 -0.305202 0.479278 -0.131465 -0.319088 0.535836 -0.122531 -0.33276 0.606848
-0.116936 -0.346066 0.628613 -0.110368 -0.359061 0.570779 -0.101352 -0.371723 0.568568 -0.0888234
-0.383984 0.657158 -0.0813983 -0.396068 0.623738 -0.0770212 -0.40765 0.575774 -0.0661874 -0.000106224
0 -0.00290649 0 16.6 0 -0.000216763 0 -0.00584176 -0.000334778 0
-0.0088013 -0.000463188 0 -0.0118594 -0.000605065 0 -0.0150688 -0.00076442 0 -0.0183074
-0.000945186 0 -0.0215627 -0.00115183 0.00930447 -0.0249131 -0.00139066 -0.00742345 -0.0283399 -0.00166786
-0.035627 -0.0318111 -0.00199042 -0.0460835 -0.0353581 -0.00236896 -0.0600891 -0.0390775 -0.0028153 -0.0138032
-0.0428202 -0.00334082 0.0412018 -0.0466378 -0.00396276 0.0980324 -0.0506706 -0.00470122 0.134559 -0.0548083
-0.00557594 0.116474 -0.0590815 -0.00661612 0.125993 -0.063447 -0.00785695 0.140324 -0.067856 -0.00933487
0.131155 -0.072448 -0.0110984 0.117486 -0.0773031 -0.0132087 0.121668 -0.0828416 -0.0157278 0.108142
-0.0892173 -0.0187276 0.0798405 -0.0961518 -0.0223043 0.11377 -0.103439 -0.0265194 0.194466 -0.11104
-0.0313323 0.224733 -0.118426 -0.036722 0.189781 -0.125372 -0.0426834 0.208803 -0.131751 -0.0492416
0.234546 -0.138502 -0.056428 0.232897 -0.145325 -0.0642524 0.277919 -0.151389 -0.0726899 0.291021
-0.157482 -0.0817189 0.343002 -0.163457 -0.091386 0.361081 -0.169241 -0.101751 0.279063 -0.174635
-0.112765 0.301774 -0.178579 -0.124258 0.361717 -0.182303 -0.136219 0.386339 -0.184865 -0.14871
0.380148 -0.186857 -0.161766 0.407192 -0.190443 -0.175324 0.450099 -0.192632 -0.189215 0.430365
-0.19356 -0.203263 0.470887 -0.193017 -0.217415 0.447749 -0.19081 -0.231672 0.407593 -0.189155
-0.246094 0.483776 -0.187904 -0.260795 0.54748 -0.18129 -0.275545 0.504357 -0.175146 -0.290221
0.467307 -0.174221 -0.304842 0.519441 -0.165216 -0.31938 0.592193 -0.156254 -0.333799 0.612104
-0.153377 -0.347939 0.568847 -0.146337 -0.361766 0.567208 -0.13535 -0.375214 0.564825 -0.124862
-0.388402 0.590454 -0.110569 -0.401458 0.627042 -0.102401 -0.414026 0.646183 -0.0953155 -0.000101397
0 -0.00350407 0 16.6 0 -0.000207013 0 -0.00703896 -0.000319743 0
-0.0105917 -0.000442444 0 -0.0142159 -0.000578087 0 -0.0179493 -0.000730062 0 -0.0216932
-0.000902453 0 -0.0254879 -0.00109933 0.001481 -0.0293924 -0.00132637 0.00108322 -0.0332884 -0.00158959
-0.0107571 -0.0372218 -0.00189646 -0.0334417 -0.0413473 -0.00225621 -0.0512616 -0.0455397 -0.00267904 -0.0568214
-0.0497094 -0.00317666 -0.0632041 -0.0540109 -0.00376498 -0.0126556 -0.0585314 -0.00446322 0.0433537 -0.063147
-0.00529005 0.097422 -0.0678732 -0.00627319 0.160698 -0.0726999 -0.00744501 0.176665 -0.0776178 -0.00884191
0.179234 -0.0827546 -0.0105073 0.159979 -0.0882575 -0.0124922 0.142206 -0.094561 -0.0148571 0.136601
-0.101749 -0.017676 0.123904 -0.109448 -0.0210439 0.101956 -0.117487 -0.0250203 0.139067 -0.125882
-0.0295662 0.180789 -0.133862 -0.034664 0.177923 -0.141276 -0.0403107 0.219585 -0.148488 -0.0465306
0.23753 -0.156229 -0.0533897 0.263001 -0.164254 -0.0609378 0.273835 -0.171681 -0.069125 0.235658
-0.179747 -0.0779094 0.247095 -0.187623 -0.0873549 0.301633 -0.194425 -0.0975264 0.297138 -0.201534
-0.10837 0.284127 -0.208025 -0.119732 0.318421 -0.213621 -0.131608 0.341686 -0.216594 -0.144043
0.374466 -0.220093 -0.157087 0.396836 -0.222755 -0.170698 0.408883 -0.227492 -0.184699 0.40816
-0.231559 -0.198913 0.408588 -0.229781 -0.21329 0.404675 -0.234236 -0.227851 0.435202 -0.233456
-0.24264 0.476919 -0.226769 -0.25774 0.514395 -0.219158 -0.272978 0.484694 -0.21249 -0.288192
0.471805 -0.210335 -0.303407 0.560602 -0.206787 -0.318659 0.575106 -0.198942 -0.33379 0.530424
-0.194567 -0.348725 0.548341 -0.191591 -0.363363 0.628042 -0.177993 -0.377593 0.584654 -0.169279
-0.391731 0.549983 -0.160559 -0.405787 0.638517 -0.147739 -0.419426 0.656671 -0.133483 -9.57806e-05
0 -0.00406894 0 16.6 0 -0.000195534 0 -0.00816248 -0.000302045 0
-0.0122966 -0.000417829 0 -0.0164504 -0.000545818 0 -0.0206489 -0.000689064 0 -0.0249138
-0.000851187 0 -0.0292621 -0.00103646 0 -0.0336133 -0.00124978 0.00736206 -0.0379842 -0.00149659
0.00389756 -0.0423944 -0.00178453 -0.0247396 -0.0469422 -0.0021217 -0.0455437 -0.0516022 -0.00251685 -0.0496887
-0.0562131 -0.00298212 -0.0549405 -0.0609402 -0.00353244 -0.0621648 -0.0658583 -0.0041845 -0.0511411 -0.0708821
-0.00495822 0.0215116 -0.0760151 -0.00587697 0.0807425 -0.0812319 -0.00696942 0.140418 -0.0865391 -0.00827334
0.204553 -0.0921041 -0.00982437 0.206326 -0.0981335 -0.0116689 0.186364 -0.104986 -0.0138668 0.161439
-0.112564 -0.0164886 0.164727 -0.120824 -0.0196204 0.171362 -0.129418 -0.0233284 0.159934 -0.138184
-0.0275894 0.155638 -0.146909 -0.0323667 0.16386 -0.155379 -0.0376584 0.216948 -0.162974 -0.0435294
0.248534 -0.171572 -0.050062 0.240596 -0.181393 -0.0572881 0.227203 -0.190521 -0.0651391 0.208982
-0.200377 -0.0735901 0.187752 -0.209404 -0.0827158 0.209866 -0.217746 -0.0925865 0.28937 -0.227069
-0.103136 0.300972 -0.236305 -0.114237 0.322563 -0.243709 -0.125892 0.319209 -0.249032 -0.138137
0.303942 -0.255355 -0.151054 0.374163 -0.257597 -0.164568 0.372965 -0.26451 -0.178521 0.343252
-0.273626 -0.192767 0.357254 -0.270124 -0.207226 0.36755 -0.271519 -0.22193 0.446023 -0.276413
-0.236933 0.473105 -0.270001 -0.252313 0.477878 -0.261293 -0.267916 0.472567 -0.257567 -0.283474
0.469093 -0.257845 -0.299058 0.520212 -0.256 -0.314861 0.51611 -0.246102 -0.330603 0.542431
-0.238181 -0.346123 0.577846 -0.237042 -0.361372 0.624506 -0.226562 -0.376322 0.592257 -0.215871
-0.391238 0.567034 -0.212381 -0.406099 0.664392 -0.198927 -0.420677 0.639484 -0.179326 -8.95177e-05
0 -0.00460127 0 16.6 0 -0.000182804 0 -0.00922228 -0.000282292 0
-0.0138813 -0.000390373 0 -0.0185536 -0.000509752 0 -0.0232383 -0.000643182 0 -0.0280032
-0.000794069 0 -0.0328414 -0.00096617 0 -0.0376312 -0.00116385 0.00221744 -0.0424889 -0.00139279
0.00895057 -0.0473908 -0.00165938 -0.00892209 -0.0523004 -0.00197101 -0.0334434 -0.0573058 -0.00233562 -0.0432499
-0.0623195 -0.002765 -0.0502946 -0.0673717 -0.00327306 -0.0511692 -0.0725616 -0.00387402 -0.0392314 -0.0778962
-0.00458705 -0.0133312 -0.0834199 -0.00543312 -0.00403333 -0.0890565 -0.00643899 0.041095 -0.0946989 -0.00763819
0.0935274 -0.100611 -0.00906395 0.105082 -0.107099 -0.0107589 0.107485 -0.114363 -0.0127771 0.100012
-0.122132 -0.0151858 0.100444 -0.130567 -0.0180591 0.113327 -0.139631 -0.0214756 0.114662 -0.148471
-0.0254156 0.125815 -0.157128 -0.0298299 0.145928 -0.166424 -0.0347356 0.143976 -0.175502 -0.0402057
0.134221 -0.185538 -0.0463211 0.144288 -0.196503 -0.053103 0.160224 -0.207168 -0.0605153 0.170054
-0.218543 -0.0685375 0.185888 -0.229693 -0.0772264 0.181981 -0.240856 -0.0866446 0.23979 -0.251807
-0.0967471 0.287996 -0.262317 -0.107437 0.258731 -0.271003 -0.118693 0.252868 -0.282586 -0.13057
0.246211 -0.291989 -0.143166 0.286618 -0.293882 -0.156402 0.32267 -0.300666 -0.170106 0.332406
-0.312892 -0.184161 0.375366 -0.317414 -0.198496 0.375475 -0.317044 -0.213134 0.391363 -0.319253
-0.228136 0.452954 -0.318164 -0.243572 0.490161 -0.313072 -0.259305 0.46605 -0.312337 -0.274994
0.489386 -0.314417 -0.290783 0.502523 -0.307654 -0.306844 0.536475 -0.299546 -0.322924 0.613756
-0.29361 -0.338829 0.608097 -0.289686 -0.354537 0.596373 -0.282448 -0.37011 0.58498 -0.272172
-0.385552 0.572155 -0.263396 -0.400877 0.636698 -0.251142 -0.416112 0.650291 -0.239851 -8.27538e-05
0 -0.00508728 0 16.6 0 -0.000169092 0 -0.0101986 -0.000261146 0
-0.0153452 -0.000361009 0 -0.0205164 -0.000471256 0 -0.0256908 -0.000594287 0 -0.0309132
-0.000733363 0 -0.0361904 -0.000891701 0 -0.0414563 -0.00107316 0 -0.0467346 -0.0012829
0.0140922 -0.052017 -0.00152653 0.0143911 -0.057292 -0.00181125 -0.00999867 -0.062604 -0.002144 -0.0310065
-0.0679406 -0.00253541 -0.0461572 -0.073273 -0.00299775 -0.0477028 -0.0786161 -0.00354373 -0.0289821 -0.0842395
-0.0041909 0.00493021 -0.0900363 -0.00495956 0.0202376 -0.0958722 -0.00587333 0.0175771 -0.10185 -0.0069596
0.0111678 -0.108055 -0.00825326 -0.000829371 -0.11473 -0.00979185 0.00492815 -0.122121 -0.0116198 0.0137536
-0.130075 -0.0138001 0.0238037 -0.138691 -0.016406 0.0542031 -0.148157 -0.0195103 0.076393 -0.157296
-0.0230866 0.0796267 -0.165927 -0.0270885 0.0998244 -0.175579 -0.0315478 0.123516 -0.185743 -0.0365407
0.137879 -0.19638 -0.0421326 0.114113 -0.208501 -0.0483538 0.0954192 -0.221386 -0.0551946 0.122781
-0.234346 -0.0626406 0.151359 -0.247828 -0.0707419 0.192523 -0.26122 -0.0795418 0.238259 -0.274479
-0.0890224 0.226064 -0.287938 -0.0990988 0.195305 -0.300103 -0.109758 0.221249 -0.315449 -0.121063
0.25824 -0.329075 -0.133076 0.279462 -0.334881 -0.145757 0.308613 -0.342114 -0.158965 0.392273
-0.355386 -0.172571 0.434379 -0.365934 -0.186498 0.36974 -0.368507 -0.200779 0.377692 -0.37162
-0.215475 0.478208 -0.373034 -0.230631 0.500696 -0.37216 -0.246121 0.459839 -0.373648 -0.261708
0.486777 -0.371368 -0.277453 0.492674 -0.365783 -0.293417 0.537518 -0.360926 -0.309474 0.588085
-0.355415 -0.325524 0.556995 -0.351751 -0.341442 0.583267 -0.344873 -0.357182 0.615753 -0.337859
-0.372866 0.628787 -0.326577 -0.388437 0.646498 -0.313609 -0.404013 0.664264 -0.309262 -7.58408e-05
0 -0.00552084 0 16.6 0 -0.000154961 0 -0.0110764 -0.000239457 0
-0.0166841 -0.000331006 0 -0.0223151 -0.000432054 0 -0.0279503 -0.000544908 0 -0.0336157
-0.000672026 0 -0.039294 -0.000816489 0 -0.0449468 -0.000981934 0 -0.0505868 -0.00117232
0.00512351 -0.0561946 -0.00139289 0.022652 -0.0617775 -0.00164989 0.0179405 -0.0673675 -0.0019499 -0.015011
-0.0729278 -0.00230255 -0.036142 -0.0785399 -0.00271821 -0.042888 -0.0841717 -0.00320849 -0.0312446 -0.0899384
-0.00378979 0.0021637 -0.0957115 -0.0044784 0.0209715 -0.101585 -0.00529725 0.0315423 -0.107723 -0.00627172
0.037873 -0.114085 -0.00743024 0.0265939 -0.120838 -0.00880897 0.0303136 -0.128165 -0.0104455 0.0274642
-0.136238 -0.0123933 0.0459454 -0.145026 -0.0147257 0.0990879 -0.154076 -0.0175014 0.127894 -0.163033
-0.0206965 0.133371 -0.172237 -0.024262 0.107029 -0.182277 -0.0282029 0.109873 -0.192917 -0.0326118
0.144003 -0.204359 -0.0375855 0.136079 -0.218159 -0.0431581 0.143735 -0.232993 -0.0493089 0.136078
-0.247843 -0.056039 0.141435 -0.262892 -0.0634063 0.212399 -0.278048 -0.0714369 0.237367 -0.294639
-0.080129 0.212349 -0.311236 -0.0893992 0.178212 -0.326538 -0.0992402 0.187943 -0.341525 -0.10972
0.270846 -0.355519 -0.12092 0.281904 -0.367166 -0.132787 0.296287 -0.381528 -0.145196 0.332057
-0.397678 -0.158052 0.326186 -0.410124 -0.171271 0.325991 -0.41786 -0.184882 0.393438 -0.427653
-0.198951 0.441599 -0.432674 -0.213513 0.418038 -0.431504 -0.228443 0.426711 -0.432646 -0.243602
0.445271 -0.432182 -0.258962 0.464814 -0.431215 -0.274586 0.509447 -0.426798 -0.290371 0.530701
-0.420082 -0.306164 0.483404 -0.418699 -0.321854 0.563833 -0.41175 -0.337386 0.641998 -0.404273
-0.352947 0.637337 -0.39668 -0.368425 0.622017 -0.383631 -0.384163 0.638674 -0.37431 -6.92527e-05
0 -0.00588097 0 16.6 0 -0.000141576 0 -0.0118122 -0.000218897 0
-0.0178148 -0.000302878 0 -0.0238514 -0.000395483 0 -0.0298928 -0.000498796 0 -0.0359401
-0.000614854 0 -0.0419457 -0.000746451 0 -0.0479126 -0.000896781 0 -0.0538313 -0.00106945
0 -0.059677 -0.00126878 0.0178615 -0.0654426 -0.00149997 0.028379 -0.0711657 -0.00176991 0.00427909
-0.0769105 -0.00208638 -0.0232309 -0.0827233 -0.00245796 -0.0343768 -0.0885325 -0.00289817 -0.0350975 -0.0943232
-0.00341912 -0.0158188 -0.10014 -0.00403242 0.00754749 -0.106057 -0.00476164 0.0295542 -0.112119 -0.00562994
0.0480944 -0.118536 -0.00666236 0.0544234 -0.125303 -0.00789182 0.0637025 -0.132433 -0.00935005 0.0667216
-0.140457 -0.0110798 0.0865228 -0.149157 -0.0131493 0.131787 -0.157638 -0.0156154 0.15887 -0.166132
-0.0184376 0.132189 -0.17563 -0.0215591 0.0755076 -0.18585 -0.0249726 0.0911055 -0.196947 -0.0287834
0.141257 -0.209534 -0.0331092 0.124733 -0.224395 -0.0379956 0.146049 -0.240313 -0.0434313 0.117986
-0.256819 -0.0493948 0.107525 -0.273849 -0.0559497 0.216765 -0.29221 -0.0631392 0.210897 -0.311113
-0.07093 0.150842 -0.329722 -0.0792594 0.150237 -0.348494 -0.088152 0.155441 -0.36624 -0.0976488
0.236008 -0.380964 -0.107846 0.249542 -0.397924 -0.118708 0.204745 -0.417318 -0.13011 0.241566
-0.432729 -0.141959 0.259633 -0.449528 -0.154196 0.264705 -0.462492 -0.166874 0.326395 -0.472421
-0.180048 0.324029 -0.484173 -0.19375 0.323341 -0.491208 -0.207865 0.361086 -0.496069 -0.222269
0.370201 -0.499755 -0.236919 0.452107 -0.502133 -0.251914 0.516639 -0.501765 -0.267156 0.503014
-0.496352 -0.282402 0.451678 -0.49428 -0.297642 0.496962 -0.48688 -0.312806 0.567286 -0.477453
-0.327935 0.551907 -0.470517 -0.343029 0.591315 -0.457538 -0.358712 0.635993 -0.443015 -6.33513e-05