# vtk DataFile Version 2.0
sampleSurface
ASCII
DATASET POLYDATA
POINTS 17673 float
0.04 -0.184464 -0.06 0.04 -0.184464 -0.0559273 0.04 -0.188453 -0.0559273 0.04 -0.188453
-0.06 0.04 -0.180475 -0.06 0.04 -0.180475 -0.0559273 0.04 -0.176486 -0.06
0.04 -0.176486 -0.0559273 0.04 -0.172497 -0.06 0.04 -0.172497 -0.0559273 0.04
-0.168508 -0.06 0.04 -0.168508 -0.0559273 0.04 -0.164519 -0.06 0.04 -0.164519
-0.0559273 0.04 -0.16053 -0.06 0.04 -0.16053 -0.0559273 0.04 -0.156541 -0.06
0.04 -0.156541 -0.0559273 0.04 -0.152552 -0.06 0.04 -0.152552 -0.0559273 0.04
-0.148563 -0.06 0.04 -0.148563 -0.0559273 0.04 -0.144574 -0.06 0.04 -0.144574
-0.0559273 0.04 -0.140586 -0.06 0.04 -0.140586 -0.0559273 0.04 -0.136596 -0.06
0.04 -0.136596 -0.0559273 0.04 -0.132607 -0.06 0.04 -0.132607 -0.0559273 0.04
-0.128619 -0.06 0.04 -0.128619 -0.0559273 0.04 -0.12463 -0.06 0.04 -0.12463
-0.0559273 0.04 -0.120641 -0.06 0.04 -0.120641 -0.0559273 0.04 -0.116652 -0.06
0.04 -0.116652 -0.0559273 0.04 -0.112663 -0.06 0.04 -0.112663 -0.0559273 0.04
-0.108674 -0.06 0.04 -0.108674 -0.0559273 0.04 -0.104685 -0.06 0.04 -0.104685
-0.0559273 0.04 -0.100696 -0.06 0.04 -0.100696 -0.0559273 0.04 -0.0967069 -0.06
0.04 -0.0967069 -0.0559273 0.04 -0.0927179 -0.06 0.04 -0.0927179 -0.0559273 0.04
-0.088739 -0.06 0.04 -0.0887391 -0.0559273 0.04 -0.0847775 -0.06 0.04 -0.0847775
-0.0559273 0.04 -0.0809835 -0.06 0.04 -0.0809835 -0.0559273 0.04 -0.0773956 -0.06
0.04 -0.0773956 -0.0559273 0.04 -0.0739968 -0.06 0.04 -0.0739968 -0.0559273 0.04
-0.0707629 -0.06 0.04 -0.0707629 -0.0559273 0.04 -0.0676784 -0.06 0.04 -0.0676784
-0.0559273 0.04 -0.0647301 -0.06 0.04 -0.0647301 -0.0559273 0.04 -0.0619431 -0.06
0.04 -0.0619431 -0.0559273 0.04 -0.0593321 -0.06 0.04 -0.0593321 -0.0559273 0.04
-0.0568459 -0.06 0.04 -0.0568459 -0.0559273 0.04 -0.0544545 -0.06 0.04 -0.0544545
-0.0559273 0.04 -0.0521732 -0.06 0.04 -0.0521732 -0.0559273 0.04 -0.0500374 -0.06
0.04 -0.0500374 -0.0559273 0.04 -0.0480123 -0.06 0.04 -0.0480123 -0.0559273 0.04
-0.046084 -0.06 0.04 -0.046084 -0.0559273 0.04 -0.0442254 -0.06 0.04 -0.0442254
-0.0559273 0.04 -0.0424486 -0.06 0.04 -0.0424486 -0.0559273 0.04 -0.0407648 -0.06
0.04 -0.0407648 -0.0559273 0.04 -0.0391821 -0.06 0.04 -0.0391821 -0.0559273 0.04
-0.0376993 -0.06 0.04 -0.0376993 -0.0559273 0.04 -0.0362943 -0.06 0.04 -0.0362943
-0.0559273 0.04 -0.0349524 -0.06 0.04 -0.0349524 -0.0559273 0.04 -0.0336651 -0.06
0.04 -0.0336651 -0.0559273 0.04 -0.0324289 -0.06 0.04 -0.0324289 -0.0559273 0.04
-0.0312728 -0.06 0.04 -0.0312728 -0.0559273 0.04 -0.0301752 -0.06 0.04 -0.0301752
-0.0559273 0.04 -0.0291177 -0.06 0.04 -0.0291177 -0.0559273 0.04 -0.0281145 -0.06
0.04 -0.0281145 -0.0559273 0.04 -0.0271661 -0.06 0.04 -0.0271661 -0.0559273 0.04
-0.0262754 -0.06 0.04 -0.0262754 -0.0559273 0.04 -0.02543 -0.06 0.04 -0.02543
-0.0559273 0.04 -0.0246256 -0.06 0.04 -0.0246256 -0.0559273 0.04 -0.0238573 -0.06
0.04 -0.0238573 -0.0559273 0.04 -0.023094 -0.0559273 0.04 -0.023094 -0.06 0.04
-0.184464 -0.0519514 0.04 -0.188453 -0.0519514 0.04 -0.180475 -0.0519514 0.04 -0.176486
-0.0519514 0.04 -0.172497 -0.0519514 0.04 -0.168508 -0.0519514 0.04 -0.164519 -0.0519514
0.04 -0.16053 -0.0519514 0.04 -0.156541 -0.0519514 0.04 -0.152552 -0.0519514 0.04
-0.148563 -0.0519514 0.04 -0.144574 -0.0519514 0.04 -0.140586 -0.0519514 0.04 -0.136596
-0.0519514 0.04 -0.132607 -0.0519514 0.04 -0.128619 -0.0519514 0.04 -0.12463 -0.0519514
0.04 -0.120641 -0.0519514 0.04 -0.116652 -0.0519514 0.04 -0.112663 -0.0519514 0.04
-0.108674 -0.0519514 0.04 -0.104685 -0.0519514 0.04 -0.100696 -0.0519514 0.04 -0.0967069
-0.0519514 0.04 -0.0927179 -0.0519514 0.04 -0.088739 -0.0519514 0.04 -0.0847775 -0.0519514
0.04 -0.0809835 -0.0519514 0.04 -0.0773956 -0.0519514 0.04 -0.0739968 -0.0519514 0.04
-0.0707629 -0.0519514 0.04 -0.0676784 -0.0519514 0.04 -0.0647301 -0.0519514 0.04 -0.0619431
-0.0519514 0.04 -0.0593321 -0.0519514 0.04 -0.0568459 -0.0519514 0.04 -0.0544545 -0.0519514
0.04 -0.0521732 -0.0519514 0.04 -0.0500374 -0.0519514 0.04 -0.0480123 -0.0519514 0.04
-0.046084 -0.0519514 0.04 -0.0442254 -0.0519514 0.04 -0.0424486 -0.0519514 0.04 -0.0407648
-0.0519514 0.04 -0.0391821 -0.0519514 0.04 -0.0376993 -0.0519514 0.04 -0.0362943 -0.0519514
0.04 -0.0349524 -0.0519514 0.04 -0.0336651 -0.0519514 0.04 -0.0324289 -0.0519514 0.04
-0.0312728 -0.0519514 0.04 -0.0301752 -0.0519514 0.04 -0.0291177 -0.0519514 0.04 -0.0281145
-0.0519514 0.04 -0.0271661 -0.0519514 0.04 -0.0262754 -0.0519514 0.04 -0.02543 -0.0519514
0.04 -0.0246256 -0.0519514 0.04 -0.0238573 -0.0519514 0.04 -0.023094 -0.0519514 0.04
-0.184464 -0.0479754 0.04 -0.188453 -0.0479754 0.04 -0.180475 -0.0479754 0.04 -0.176486
-0.0479754 0.04 -0.172497 -0.0479754 0.04 -0.168508 -0.0479754 0.04 -0.164519 -0.0479754
0.04 -0.16053 -0.0479754 0.04 -0.156541 -0.0479754 0.04 -0.152552 -0.0479754 0.04
-0.148563 -0.0479754 0.04 -0.144574 -0.0479754 0.04 -0.140586 -0.0479754 0.04 -0.136596
-0.0479754 0.04 -0.132607 -0.0479754 0.04 -0.128619 -0.0479754 0.04 -0.12463 -0.0479754
0.04 -0.120641 -0.0479754 0.04 -0.116652 -0.0479754 0.04 -0.112663 -0.0479754 0.04
-0.108674 -0.0479754 0.04 -0.104685 -0.0479754 0.04 -0.100696 -0.0479754 0.04 -0.0967069
-0.0479754 0.04 -0.0927179 -0.0479754 0.04 -0.0887391 -0.0479754 0.04 -0.0847775 -0.0479754
0.04 -0.0809835 -0.0479754 0.04 -0.0773956 -0.0479754 0.04 -0.0739968 -0.0479754 0.04
-0.0707629 -0.0479754 0.04 -0.0676784 -0.0479754 0.04 -0.0647301 -0.0479754 0.04 -0.0619431
-0.0479754 0.04 -0.0593321 -0.0479754 0.04 -0.0568459 -0.0479754 0.04 -0.0544545 -0.0479754
0.04 -0.0521732 -0.0479754 0.04 -0.0500374 -0.0479754 0.04 -0.0480123 -0.0479754 0.04
-0.046084 -0.0479754 0.04 -0.0442254 -0.0479754 0.04 -0.0424486 -0.0479754 0.04 -0.0407648
-0.0479754 0.04 -0.0391821 -0.0479754 0.04 -0.0376993 -0.0479754 0.04 -0.0362943 -0.0479754
0.04 -0.0349524 -0.0479754 0.04 -0.0336651 -0.0479754 0.04 -0.0324289 -0.0479754 0.04
-0.0312728 -0.0479754 0.04 -0.0301752 -0.0479754 0.04 -0.0291177 -0.0479754 0.04 -0.0281145
-0.0479754 0.04 -0.0271661 -0.0479754 0.04 -0.0262754 -0.0479754 0.04 -0.02543 -0.0479754
0.04 -0.0246256 -0.0479754 0.04 -0.0238573 -0.0479754 0.04 -0.023094 -0.0479754 0.04
-0.184464 -0.0439994 0.04 -0.188453 -0.0439994 0.04 -0.180475 -0.0439994 0.04 -0.176486
-0.0439994 0.04 -0.172497 -0.0439994 0.04 -0.168508 -0.0439994 0.04 -0.164519 -0.0439994
0.04 -0.16053 -0.0439994 0.04 -0.156541 -0.0439994 0.04 -0.152552 -0.0439994 0.04
-0.148563 -0.0439994 0.04 -0.144574 -0.0439994 0.04 -0.140586 -0.0439994 0.04 -0.136596
-0.0439994 0.04 -0.132607 -0.0439994 0.04 -0.128619 -0.0439994 0.04 -0.12463 -0.0439994
0.04 -0.120641 -0.0439994 0.04 -0.116652 -0.0439994 0.04 -0.112663 -0.0439994 0.04
-0.108674 -0.0439994 0.04 -0.104685 -0.0439994 0.04 -0.100696 -0.0439994 0.04 -0.0967069
-0.0439994 0.04 -0.0927179 -0.0439994 0.04 -0.0887391 -0.0439994 0.04 -0.0847775 -0.0439994
0.04 -0.0809835 -0.0439994 0.04 -0.0773956 -0.0439994 0.04 -0.0739968 -0.0439994 0.04
-0.0707629 -0.0439994 0.04 -0.0676784 -0.0439994 0.04 -0.0647301 -0.0439994 0.04 -0.0619431
-0.0439994 0.04 -0.0593321 -0.0439994 0.04 -0.0568459 -0.0439994 0.04 -0.0544545 -0.0439994
0.04 -0.0521732 -0.0439994 0.04 -0.0500374 -0.0439994 0.04 -0.0480123 -0.0439994 0.04
-0.046084 -0.0439994 0.04 -0.0442254 -0.0439994 0.04 -0.0424486 -0.0439994 0.04 -0.0407648
-0.0439994 0.04 -0.0391821 -0.0439994 0.04 -0.0376993 -0.0439994 0.04 -0.0362943 -0.0439994
0.04 -0.0349524 -0.0439994 0.04 -0.0336651 -0.0439994 0.04 -0.0324289 -0.0439994 0.04
-0.0312728 -0.0439994 0.04 -0.0301752 -0.0439994 0.04 -0.0291177 -0.0439994 0.04 -0.0281145
-0.0439994 0.04 -0.0271661 -0.0439994 0.04 -0.0262754 -0.0439994 0.04 -0.02543 -0.0439994
0.04 -0.0246256 -0.0439994 0.04 -0.0238573 -0.0439994 0.04 -0.023094 -0.0439994 0.04
-0.184464 -0.0400235 0.04 -0.188453 -0.0400235 0.04 -0.180475 -0.0400235 0.04 -0.176486
-0.0400235 0.04 -0.172497 -0.0400235 0.04 -0.168508 -0.0400235 0.04 -0.164519 -0.0400235
0.04 -0.16053 -0.0400235 0.04 -0.156541 -0.0400235 0.04 -0.152552 -0.0400235 0.04
-0.148563 -0.0400235 0.04 -0.144574 -0.0400235 0.04 -0.140586 -0.0400235 0.04 -0.136596
-0.0400235 0.04 -0.132607 -0.0400235 0.04 -0.128619 -0.0400235 0.04 -0.12463 -0.0400235
0.04 -0.120641 -0.0400235 0.04 -0.116652 -0.0400235 0.04 -0.112663 -0.0400235 0.04
-0.108674 -0.0400235 0.04 -0.104685 -0.0400235 0.04 -0.100696 -0.0400235 0.04 -0.0967069
-0.0400235 0.04 -0.0927179 -0.0400235 0.04 -0.088739 -0.0400235 0.04 -0.0847775 -0.0400235
0.04 -0.0809835 -0.0400235 0.04 -0.0773956 -0.0400235 0.04 -0.0739968 -0.0400235 0.04
-0.0707629 -0.0400235 0.04 -0.0676784 -0.0400235 0.04 -0.0647301 -0.0400235 0.04 -0.0619431
-0.0400235 0.04 -0.0593321 -0.0400235 0.04 -0.0568459 -0.0400235 0.04 -0.0544545 -0.0400235
0.04 -0.0521732 -0.0400235 0.04 -0.0500374 -0.0400235 0.04 -0.0480123 -0.0400235 0.04
-0.046084 -0.0400235 0.04 -0.0442254 -0.0400235 0.04 -0.0424486 -0.0400235 0.04 -0.0407648
-0.0400235 0.04 -0.0391821 -0.0400235 0.04 -0.0376993 -0.0400235 0.04 -0.0362943 -0.0400235
0.04 -0.0349524 -0.0400235 0.04 -0.0336651 -0.0400235 0.04 -0.0324289 -0.0400235 0.04
-0.0312728 -0.0400235 0.04 -0.0301752 -0.0400235 0.04 -0.0291177 -0.0400235 0.04 -0.0281145
-0.0400235 0.04 -0.0271661 -0.0400235 0.04 -0.0262754 -0.0400235 0.04 -0.02543 -0.0400235
0.04 -0.0246256 -0.0400235 0.04 -0.0238573 -0.0400235 0.04 -0.023094 -0.0400235 0.04
-0.184464 -0.0360475 0.04 -0.188453 -0.0360475 0.04 -0.180475 -0.0360475 0.04 -0.176486
-0.0360475 0.04 -0.172497 -0.0360475 0.04 -0.168508 -0.0360475 0.04 -0.164519 -0.0360475
0.04 -0.16053 -0.0360475 0.04 -0.156541 -0.0360475 0.04 -0.152552 -0.0360475 0.04
-0.148563 -0.0360475 0.04 -0.144574 -0.0360475 0.04 -0.140586 -0.0360475 0.04 -0.136596
-0.0360475 0.04 -0.132607 -0.0360475 0.04 -0.128619 -0.0360475 0.04 -0.12463 -0.0360475
0.04 -0.120641 -0.0360475 0.04 -0.116652 -0.0360475 0.04 -0.112663 -0.0360475 0.04
-0.108674 -0.0360475 0.04 -0.104685 -0.0360475 0.04 -0.100696 -0.0360475 0.04 -0.0967069
[...]
POINT_DATA 17673
FIELD attributes 1
Mode4 3 17673 float
0 0 0 1.8361e-05 0 0.000166197 0 16.6 0 0 8.25622
0 0 0 0 4.24085e-05 0 0.000344297 0 0 0
7.32419e-05 0.00501442 0.000454547 0 0 0 0.00011242 -0.00247022 0.000547758 0
0 0 0.000161385 -0.00748464 0.000608971 0 0 0 0.0002218 0.0332827
0.00062014 0 0 0 0.000295177 0.0332827 0.000606935 0 0 0
0.000382899 0.0219372 0.000538388 0 0 0 0.000487706 7.71195e-05 0.000408558 0
0 0 0.000612969 0.0125401 0.00024958 0 0 0 0.000761074 0.122629
2.99376e-05 0 0 0 0.000935217 0.10928 -0.000242238 0 0 0
0.00114114 0.0240901 -0.000568431 0 0 0 0.0013841 0.0183315 -0.000933597 0
0 0 0.0016713 0.0149748 -0.00134886 0 0 0 0.00201063 -0.0909839
-0.00179304 0 0 0 0.00240922 -0.180656 -0.00224528 0 0 0
0.0028798 -0.133772 -0.00275094 0 0 0 0.00343643 -0.0707315 -0.00330775 0
0 0 0.00409599 -0.0146322 -0.00376934 0 0 0 0.00487112 0.0180917
-0.00368077 0 0 0 0.00578148 0.0227301 -0.00253991 0 0 0
0.00685303 0.0650075 -0.000126027 0 0 0 0.00811363 0.0749552 0.00347612 0
0 0 0.00959871 0.0598549 0.00797213 0 0 0 0.0113225 0.0570727
0.0129996 0 0 0 0.0132454 0.0495853 0.0179406 0 0 0
0.0153551 0.0447697 0.0221027 0 0 0 0.0176505 0.029766 0.0250403 0
0 0 0.0201351 0.0324643 0.0265606 0 0 0 0.0228037 0.0426138
0.0271655 0 0 0 0.0256535 0.061855 0.0276651 0 0 0
0.0286538 0.0816131 0.0283863 0 0 0 0.031778 0.0645289 0.0293592 0
0 0 0.0350342 0.0389601 0.0303674 0 0 0 0.0384383 0.0257299
0.031095 0 0 0 0.0419588 0.0364281 0.0317232 0 0 0
0.0455336 0.032557 0.0322875 0 0 0 0.0491714 0.0249266 0.0325208 0
0 0 0.0528744 0.0354459 0.0326096 0 0 0 0.0566257 0.0329998
0.0326664 0 0 0 0.0604167 0.0133711 0.0327331 0 0 0
0.064194 -0.00916777 0.0327875 0 0 0 0.0678718 -0.00403522 0.0326265 0
0 0 0.0714362 0.0034563 0.0324628 0 0 0 0.0748732 -0.00104007
0.032134 0 0 0 0.0782245 -0.0402151 0.0314383 0 0 0
0.0815154 -0.0914525 0.0306117 0 0 0 0.0846331 -0.092585 0.0296595 0
0 0 0.0875599 -0.0760578 0.02871 0 0 0 0.0903577 -0.0729945
0.0275142 0 0 0 0.0929506 -0.0786879 0.0258786 0 0 0
0.0952617 -0.0876966 0.0244781 0 0 0 0.0973467 -0.0861352 0.0229904 0
0 0 0.0991761 -0.0924297 0.0210381 0 0 0 0.100679 -0.10501
0.0190746 0 0 0 0.101976 -0.125682 0.0171161 0 0 0
0.103029 -0.154206 0.0154122 0.103798 -0.165629 0.0133845 0 0 0 1.98361e-05
0 0.000155392 0 16.6 0 4.65248e-05 0 0.000328722 8.14295e-05 0.00499411
0.000468599 0.000125746 0.0049941 0.000572653 0.000180323 0 0.00065661 0.000246406 -0.0820612 0.000695007
0.000325187 -0.107491 0.000677365 0.000417878 0.016411 0.000621751 0.000526746 0.0999015 0.000504047 0.000655164
0.156267 0.000320647 0.000805845 0.259141 4.07214e-05 0.000980491 0.279366 -0.000314868 0.00118454 0.161628
-0.00071831 0.00142429 0.0465658 -0.00118796 0.0017048 0.0159973 -0.00177749 0.00203497 -0.0348614 -0.00245062
0.00242226 -0.0829524 -0.00319617 0.00287789 -0.072488 -0.00406559 0.00341572 -0.0610747 -0.004999 0.00404974
0.0111667 -0.00595152 0.00479434 0.0544034 -0.00685048 0.00566821 0.030096 -0.00757717 0.00669465 0.0576002
-0.00804266 0.00790223 0.0793299 -0.00819374 0.00931558 0.0616833 -0.00796701 0.0109518 0.0683558 -0.00730729
0.0127896 0.0773233 -0.00617104 0.0147985 0.0784703 -0.00459445 0.0169738 0.0976012 -0.00268813 0.01933
0.105806 -0.000506865 0.0218547 0.123235 0.00209565 0.024544 0.184044 0.00521623 0.0273693 0.216674
0.0089096 0.0302949 0.196379 0.0130473 0.0333372 0.194898 0.0173202 0.0365222 0.196486 0.0216071
0.0397905 0.198418 0.0258054 0.0430848 0.213733 0.0299006 0.0464375 0.209809 0.0338989 0.0498455
0.204991 0.0380198 0.0532939 0.214876 0.042185 0.0567781 0.215295 0.0463857 0.0602718 0.191336
0.050517 0.0636652 0.184181 0.0544809 0.0669129 0.175422 0.0583826 0.0700588 0.173603 0.0619998
0.0730952 0.159976 0.0655878 0.0760456 0.120341 0.0689353 0.0788158 0.103632 0.072362 0.0814321
0.0997135 0.0755879 0.083889 0.096921 0.0782265 0.0860804 0.0977215 0.0805395 0.0879679 0.0986165
0.083478 0.0896051 0.0923734 0.0866124 0.0909655 0.0790236 0.0881691 0.0919786 0.0629527 0.0892981
0.0928245 0.0596974 0.0907147 0.0933604 0.0503467 0.0908439 0.0936107 0.034546 0.089957 2.20304e-05
0 0.000179327 0 16.6 0 5.17391e-05 0 0.000352757 9.08185e-05 0
0.000492581 0.000140084 0 0.00059425 0.000200205 0 0.00070402 0.000271919 -0.0820614 0.00077774
0.000356148 -0.124599 0.000775634 0.000454 -0.0841119 0.000712812 0.00056722 -0.0276587 0.000586911 0.000698745
0.0706911 0.000390451 0.000851388 0.150667 6.82432e-05 0.00102746 0.197879 -0.000356981 0.00123094 0.180723
-0.000858166 0.00146663 0.103121 -0.00146331 0.00174041 0.0149108 -0.00222326 0.0020621 -0.000473231 -0.00312604
0.00243804 0.0490586 -0.00416787 0.00287769 0.0562092 -0.00539344 0.00339511 0.00300482 -0.00675395 0.00400271
-0.00821084 -0.00834378 0.00471636 0.0326284 -0.0102557 0.00555464 0.0304173 -0.012531 0.00654117 0.0254651
-0.0150576 0.00770321 0.0460215 -0.0177428 0.00905895 0.0387804 -0.0204188 0.0106318 0.0464425 -0.0225589
0.0124033 0.0720696 -0.0237183 0.0143323 0.0688766 -0.0236394 0.0164105 0.0806521 -0.0221143 0.0186489
0.0925199 -0.0188273 0.0210484 0.0870309 -0.0139667 0.0236242 0.106894 -0.00802865 0.026349 0.127825
-0.00104257 0.0291852 0.108916 0.00672431 0.0321395 0.0987499 0.0147984 0.0352503 0.103305 0.0232266
0.0384671 0.101864 0.0314185 0.0417214 0.1126 0.0392407 0.0450312 0.0982806 0.0466595 0.0483899
0.0880945 0.053792 0.0517986 0.10067 0.0610792 0.0552546 0.0987981 0.0679968 0.0587023 0.0797755
0.0746661 0.0620573 0.0466036 0.0809118 0.0652965 0.0177499 0.0859532 0.0684502 0.00928203 0.0908207
0.0714843 0.0400266 0.0957573 0.0744137 0.0644272 0.101007 0.0771652 0.0328244 0.106391 0.0797536
-0.00512743 0.111518 0.0821556 -0.0130885 0.115249 0.0843313 0.00936002 0.11716 0.0862968 0.00893275
0.119228 0.0879798 0.00340779 0.122387 0.0893298 0.00630743 0.124954 0.0903051 -0.00864536 0.125113
0.0910617 0.0117361 0.125501 0.0916068 0.0109846 0.123787 0.0918527 -0.0176378 0.120626 2.25143e-05
0 0.000198345 0 16.6 0 5.32729e-05 0 0.000379582 9.40372e-05 0
0.000535799 0.000145611 0 0.000668652 0.000208628 0 0.000777095 0.000283482 0 0.000826756
0.000370664 -0.017108 0.000797237 0.000471244 -0.150872 0.000686182 0.000586499 -0.26672 0.000487856 0.000718947
-0.208509 0.000195375 0.000872102 -0.102839 -0.000225787 0.00104669 -0.0232691 -0.00077422 0.00124656 0.0431221
-0.00143301 0.00147726 0.0776816 -0.00224712 0.00174386 0.00204281 -0.00326081 0.00205494 -0.0927457 -0.00445898
0.0024167 -0.0889268 -0.00587486 0.0028392 -0.0285293 -0.00754839 0.00333628 0.00214531 -0.00955294 0.00391955
-0.00197654 -0.0120008 0.00460544 0.0197632 -0.0149684 0.00541225 0.030572 -0.0184044 0.00635995 0.0307359
-0.022077 0.00747736 0.0435677 -0.0258287 0.00878199 0.0459828 -0.0292307 0.0102977 0.0518375 -0.0316843
0.0119938 0.073542 -0.0324493 0.0138486 0.0715489 -0.0308547 0.0158717 0.0536545 -0.0265296 0.0180625
0.0624807 -0.0194698 0.020434 0.0593844 -0.0104455 0.0229994 0.0422394 -0.00043651 0.0257164 0.05091
0.00998871 0.0285584 0.0576563 0.0201685 0.031545 0.0439342 0.0297121 0.0346849 0.0382458 0.0390716
0.0379329 0.033228 0.0478224 0.0412329 0.0287128 0.0560274 0.0445886 0.00475291 0.0636336 0.0479968
-0.010532 0.0706854 0.0514702 0.00440589 0.0780802 0.0549721 0.00799256 0.0847402 0.0584551 0.00454897
0.0913532 0.0618633 -0.0101855 0.097699 0.0651588 -0.0190222 0.101708 0.0683585 -0.0282454 0.105776
0.0714569 -0.0191307 0.110665 0.0744677 0.0136893 0.114728 0.077335 0.00291208 0.118851 0.0799915
-0.0259254 0.121767 0.0824871 -0.0138534 0.124089 0.0848466 0.0237192 0.125796 0.08696 0.0215048
0.126528 0.0887865 0.013358 0.127733 0.0903026 0.021554 0.127836 0.0914887 0.0109842 0.126669
0.0923925 0.0228775 0.124919 0.093105 0.00583965 0.121707 0.0935242 -0.0115669 0.117674 2.2206e-05
0 0.000211743 0 16.6 0 5.27315e-05 0 0.000416577 9.34959e-05 0
0.00060208 0.0001454 0 0.000742207 0.000208998 0 0.000827558 0.000284586 0 0.000828023
0.000372557 0 0.00075437 0.000474041 -0.0522814 0.000591851 0.000589859 -0.213209 0.000297764 0.000721949
-0.289805 -0.000108315 0.000873888 -0.216145 -0.000660309 0.00104582 -0.138364 -0.00135746 0.00124179 -0.0649223
-0.00219111 0.00146808 -0.00945045 -0.00323593 0.00172877 -0.00316299 -0.00453779 0.00202968 -0.0661825 -0.00600379
0.00237992 -0.101506 -0.00782053 0.00278981 -0.0399691 -0.00999844 0.00327045 0.0421678 -0.0124609 0.00383376
0.0756409 -0.0157216 0.00449566 0.0582026 -0.0197194 0.00527616 0.0420955 -0.0242441 0.00619464 0.0428273
-0.0289108 0.00727792 0.0288804 -0.0330616 0.00854515 0.0278625 -0.0359877 0.0100147 0.058899 -0.0370089
0.0116706 0.0702765 -0.0351804 0.0135041 0.0555198 -0.0297887 0.0155284 0.0434137 -0.0208625 0.0177498
0.0355811 -0.00930515 0.0201657 0.0183251 0.00292612 0.0227675 0.0129828 0.0147653 0.0255132 0.0183863
0.0256754 0.0283657 0.0304118 0.0353119 0.0313585 0.0147116 0.0439607 0.0344906 -0.0228972 0.0519591
0.0377203 -0.0229437 0.05923 0.0409957 -0.0202026 0.0651124 0.0443218 -0.0160804 0.0719446 0.0477378
-0.0228 0.0789285 0.0512465 -0.029058 0.0838802 0.0547831 -0.0218899 0.0885957 0.0583086 -0.015589
0.0940354 0.0617845 -0.0147582 0.0980561 0.0651593 -0.0373318 0.101211 0.068447 -0.0313242 0.105275
0.0716708 -0.0155881 0.107357 0.0747919 0.00962236 0.111164 0.0778179 0.00909497 0.114548 0.0806343
-0.0148702 0.113316 0.083274 0.00459854 0.114373 0.0858261 0.0271006 0.115032 0.0880791 0.0287914
0.11438 0.090054 0.0340853 0.114509 0.0918078 0.0403517 0.112108 0.0933134 0.0529874 0.110051
0.094445 0.0761956 0.108526 0.0953301 0.0570358 0.104049 0.0960029 0.0527919 0.100146 2.13911e-05
0 0.000253299 0 16.6 0 5.10126e-05 0 0.000486354 9.07884e-05 0
0.000680862 0.000141724 0 0.000815989 0.000204473 0 0.000878185 0.000279193 0 0.000844981
0.000366372 0 0.000704027 0.000467285 -0.00193231 0.000456435 0.00058212 -0.132174 7.37764e-05 0.000713105
-0.287875 -0.000447028 0.000862621 -0.277025 -0.00113906 0.00103173 -0.204155 -0.00199839 0.00122455 -0.140901
-0.00302732 0.00144604 -0.0895217 -0.00431044 0.00170214 -0.042642 -0.00582844 0.00199622 -0.0410224 -0.00754296
0.00233792 -0.0579311 -0.00967134 0.00273709 -0.0162203 -0.0122413 0.00320424 0.0553449 -0.015099 0.00375434
0.0920222 -0.0188317 0.00440011 0.0692756 -0.0234401 0.00516227 0.0307155 -0.0284696 0.0060625 0.0177852
-0.0331229 0.00712288 0.0224246 -0.0365018 0.00836481 0.0336545 -0.0379713 0.00981438 0.0483041 -0.0368199
0.0114614 0.0429195 -0.0317668 0.013303 0.0275967 -0.0226028 0.0153469 0.0264366 -0.0105403 0.0175822
0.0263935 0.0026121 0.0200077 -0.00379926 0.0146826 0.0226062 -0.00943797 0.0253521 0.0253276 0.0127722
0.0346803 0.0281473 -0.00218386 0.0429772 0.0310984 -0.0256138 0.050349 0.0341885 -0.0420734 0.0571289
0.037391 -0.0430933 0.0632472 0.0406502 -0.0370542 0.0690294 0.0439802 -0.00500331 0.0753733 0.047418
0.0178619 0.0793062 0.050944 -0.00133355 0.0822962 0.0545243 -0.0102161 0.0844528 0.0581112 0.0112409
0.0856319 0.0616597 0.0108232 0.0886804 0.0651325 -0.0131507 0.091068 0.0685349 0.00129253 0.0927321
0.0718898 0.0213485 0.0928967 0.0751558 0.0376142 0.0953895 0.0783494 0.0285965 0.0972712 0.0813821
0.0103247 0.0947897 0.0842315 0.0277421 0.0928449 0.0869559 0.0339267 0.0923401 0.0894515 0.0401106
0.0906179 0.0916702 0.070796 0.0864134 0.0937026 0.0942713 0.0836059 0.0955179 0.107721 0.0807047
0.096935 0.12526 0.0778867 0.0981336 0.11772 0.0742467 0.0991082 0.10966 0.0710622 2.03081e-05
0 0.000301312 0 16.6 0 4.86803e-05 0 0.000559892 8.7046e-05 0
0.000770295 0.000136559 0 0.000915368 0.000197808 0 0.000960962 0.000270966 0 0.000888328
0.000356672 0 0.00066401 0.000455882 0 0.000332335 0.000569286 -0.0580041 -0.000143628 0.000698785
-0.216565 -0.000797482 0.000845196 -0.307638 -0.0016211 0.00101101 -0.261489 -0.00265005 0.00120129 -0.193263
-0.00386447 0.00141908 -0.137564 -0.00528011 0.00166935 -0.0921985 -0.00696443 0.00195845 -0.0368117 -0.0089129
0.00229469 0.000858717 -0.0112289 0.00268543 0.0102205 -0.0141111 0.00314249 0.0409963 -0.0174794 0.00368319
0.0686799 -0.0213976 0.00431842 0.0625538 -0.0260359 0.0050679 0.0265054 -0.0309666 0.00595507 -0.00856123
-0.0351357 0.00699905 0.0119174 -0.0376255 0.00822597 0.0320264 -0.0378055 0.00966378 0.0218637 -0.0348008
0.0112943 0.00899721 -0.0271127 0.0131332 0.0023446 -0.0153708 0.015175 0.00170102 -0.00201938 0.0173892
0.00558738 0.010652 0.0197797 -0.0180676 0.0214221 0.0223317 -0.0362347 0.0306371 0.0249993 -0.00262454
0.0385332 0.027779 -0.015656 0.0447899 0.030688 -0.0457104 0.0507483 0.0337275 -0.0261689 0.0555428
0.0369072 0.000273615 0.0593167 0.0401564 0.00138622 0.0639393 0.0434815 0.0150565 0.0672706 0.0469302
0.0235145 0.0692112 0.05049 0.0228664 0.0720488 0.0541228 0.0278678 0.0712964 0.0577693 0.0209819
0.0693522 0.0613926 0.0277484 0.0729795 0.0649561 0.0522245 0.0745992 0.0684646 0.0642281 0.0722083
0.0719423 0.0583506 0.0718253 0.0753656 0.066033 0.0721776 0.0787334 0.0630439 0.0717814 0.0819821
0.074853 0.0695693 0.0850701 0.0870357 0.0662175 0.0880082 0.0845543 0.0658149 0.0907554 0.106663
0.0630405 0.0932829 0.116673 0.0572081 0.095627 0.146348 0.0541594 0.0977372 0.148222 0.0507699
0.099471 0.145797 0.0463697 0.101012 0.161224 0.0439497 0.1023 0.149476 0.0411012 1.90572e-05
0 0.000354599 0 16.6 0 4.60425e-05 0 0.000657076 8.29459e-05 0
0.000897233 0.000130942 0 0.00104806 0.000190628 0 0.001071 0.000262173 0 0.000948254
0.000346165 0 0.000691473 0.000443503 0 0.00028576 0.000555263 -0.00819546 -0.000323107 0.000682432
-0.132517 -0.00110659 0.000826119 -0.287566 -0.00206962 0.000989263 -0.303801 -0.00324806 0.0011758 -0.248416
-0.00462248 0.00138927 -0.186487 -0.00627575 0.00163511 -0.134213 -0.00804799 0.00191845 -0.0541363 -0.0101597
0.00224767 0.0456766 -0.0127192 0.00263202 0.0604457 -0.0155488 0.00308182 0.0327905 -0.0188981 0.00361269
0.0210419 -0.0227894 0.00423821 0.0173138 -0.027239 0.00497743 0.0120779 -0.0317967 0.00585396 -0.00416115
-0.0354049 0.00688668 0.00301753 -0.0371877 0.00810309 0.00555782 -0.0366598 0.00951328 -0.00290575 -0.0322666
0.0111097 -0.000821008 -0.0228129 0.0129183 0.00744673 -0.0103383 0.0149278 -0.0023465 0.00215719 0.0171041
-0.0153414 0.0131554 0.0194399 -0.0272592 0.0223854 0.0219246 -0.0363064 0.0300597 0.0245386 -0.0272202
0.0365432 0.0272745 -0.0138437 0.0412619 0.0301283 -0.0109399 0.0453865 0.0331231 0.010459 0.0485875
0.0362621 0.0412289 0.0510634 0.0394895 0.0229828 0.0524654 0.0428029 0.0145102 0.0528806 0.0462349
0.032122 0.0554873 0.0498009 0.0492209 0.0568899 0.0534472 0.0477828 0.055366 0.0571244 0.0417248
0.0534949 0.0607937 0.0541513 0.0536476 0.0644187 0.0773622 0.0542918 0.0680314 0.0916609 0.051396
0.0716257 0.0879522 0.0479232 0.0751854 0.104586 0.048141 0.0786947 0.111241 0.0456163 0.0821505
0.122743 0.0404793 0.0854356 0.11863 0.0405495 0.0885707 0.12109 0.0383229 0.0916079 0.140037
0.0334892 0.094399 0.13686 0.0294206 0.0969584 0.166146 0.0248137 0.0993311 0.162655 0.0211194
0.101395 0.158322 0.0161885 0.103307 0.196671 0.0117281 0.104934 0.196196 0.00800751 1.77327e-05
0 0.000424943 0 16.6 0 4.34431e-05 0 0.000787142 7.90932e-05 0
0.00106559 0.000125812 0 0.00121948 0.000184206 0 0.00122965 0.000254486 0 0.00106467
0.000337096 0 0.000738731 0.000432824 0 0.000248775 0.000542387 0 -0.000458034 0.000667062
-0.057778 -0.00137052 0.000808241 -0.20705 -0.00248768 0.000967601 -0.312671 -0.0038445 0.00114894 -0.303646
-0.00540917 0.00135697 -0.248154 -0.00719028 0.00159644 -0.191825 -0.00905502 0.00187295 -0.104739 -0.0113502
0.00219321 0.0384152 -0.0140212 0.00256868 0.113066 -0.0167151 0.0030101 0.0807961 -0.0198586 0.0035288
0.0274922 -0.023557 0.00414301 -0.0124878 -0.0276475 0.00487001 -0.0317434 -0.0316664 0.00573327 -0.0277517
-0.0347481 0.00675398 -0.00784455 -0.0361472 0.00794666 0.00161391 -0.0352652 0.00931754 -0.0123218 -0.0304638
0.0108653 -0.00745675 -0.0207701 0.0126134 0.00948241 -0.00880928 0.014567 -0.00701666 0.00231832 0.0166877
-0.00545684 0.0118488 0.0189746 -0.00320083 0.0196658 0.0214084 -0.0190513 0.0259086 0.0239581 -0.0292509
0.0311816 0.0266144 -0.0187361 0.0347906 0.02938 0.0219419 0.0370299 0.0323207 0.053557 0.0395348
0.0354076 0.0441326 0.0406163 0.0385765 0.0231707 0.0413868 0.0418431 0.0245009 0.0413342 0.0452243
0.0463286 0.0396788 0.0487349 0.0495292 0.0393636 0.0523436 0.0364224 0.0398729 0.0560164 0.0591777
0.0374134 0.0596912 0.0812468 0.035264 0.0633398 0.0880394 0.0346703 0.0670008 0.0980742 0.0319307
0.0706644 0.112808 0.0277102 0.0743232 0.120201 0.0261504 0.0779325 0.123788 0.0232957 0.0814944
0.118341 0.0169925 0.0849514 0.102784 0.0154971 0.0882958 0.122646 0.0120164 0.0915328 0.12408
0.00672095 0.0945416 0.125714 0.00192932 0.0973018 0.161932 -0.00283267 0.0998836 0.176823 -0.00698406
0.102215 0.184006 -0.0118942 0.104488 0.196816 -0.0172296 0.106469 0.2183 -0.0216989 1.64083e-05
0 0.000516464 0 16.6 0 4.11065e-05 0 0.000951283 7.61252e-05 0
0.0012802 0.00012246 0 0.001446 0.000180559 0 0.0014441 0.000250588 0 0.00124689
0.000332877 0 0.000836894 0.000427501 0 0.000254792 0.000534905 0 -0.000566909 0.000656591
-0.0097505 -0.00161958 0.000793908 -0.115964 -0.00287201 0.000947847 -0.273713 -0.00439187 0.00112277 -0.33046
-0.00613627 0.00132257 -0.303347 -0.00806238 0.00155125 -0.253847 -0.010153 0.00181761 -0.1675 -0.0124218
0.00212646 -0.0224764 -0.0150035 0.00248842 0.0981135 -0.0177835 0.00291589 0.126909 -0.0208989 0.0034195
0.0989009 -0.0243473 0.00401758 0.037468 -0.0278486 0.0047275 -0.0320869 -0.0312135 0.00557041 -0.0481159
-0.0338206 0.00656679 -0.0136291 -0.0350407 0.00772364 0.0121665 -0.034134 0.00904511 0.00699832 -0.0295727
0.0105299 0.0102299 -0.0208295 0.01221 0.00598392 -0.00991252 0.0140957 -0.0113399 0.000642885 0.0161494
0.0137269 0.00942432 0.0183603 0.0144034 0.016106 0.0207183 0.000852872 0.0213206 0.0232038 0.012909
0.0251572 0.0257768 0.000261493 0.0271396 0.0284413 0.0169481 0.0287596 0.0312771 0.0410516 0.0299114
0.0342685 0.0370724 0.0290781 0.0373329 0.0403059 0.0291056 0.0404834 0.0441732 0.0282765 0.0437637
0.0350892 0.0261185 0.0471742 0.0365726 0.0246306 0.0506906 0.0660806 0.0229526 0.0542822 0.0689358
0.0209547 0.0578877 0.0755333 0.019473 0.0614866 0.0928682 0.0172059 0.0651134 0.0998682 0.0131692
0.0687617 0.105748 0.00912326 0.0724294 0.106612 0.00574933 0.0760721 0.122029 0.0023344 0.0796527
0.124425 -0.00251107 0.08318 0.101765 -0.00774945 0.086605 0.114099 -0.0122711 0.0899075 0.121124
-0.0166361 0.0930617 0.116877 -0.021935 0.0960357 0.147172 -0.0269289 0.0988131 0.166738 -0.0338197
0.101346 0.190659 -0.0394948 0.103814 0.192038 -0.0443167 0.106092 0.204227 -0.0494904 1.54375e-05
0 0.000600506 0 16.6 0 3.98271e-05 0 0.00111319 7.53096e-05 0
0.00149218 0.000122608 0 0.00168077 0.000181807 0 0.0016753 0.000252749 0 0.0014597
0.000335305 0 0.000996093 0.000429207 0 0.000277167 0.000534554 0 -0.000685084 0.00065179
0 -0.00186844 0.000782911 -0.0468265 -0.00324423 0.000929508 -0.179306 -0.00488623 0.00109429 -0.300992
-0.00680743 0.00128191 -0.330857 -0.00892495 0.0014978 -0.30156 -0.0111733 0.00174783 -0.238771 -0.0135211
0.00204164 -0.116105 -0.0159168 0.00238709 0.0266573 -0.0184804 0.0027943 0.10789 -0.0215393 0.00328002
0.121007 -0.0246398 0.00385683 0.0855105 -0.0277396 0.00454365 0.0241028 -0.0307494 0.00536021 -0.0201131
-0.0330595 0.00632412 -0.00343868 -0.0340988 0.0074403 0.0248795 -0.0332395 0.00870621 0.0184694 -0.0295288
0.0101269 0.0120107 -0.022251 0.0117353 -0.00726562 -0.0120083 0.0135394 -0.0104065 -0.00120595 0.0155171
0.0189798 0.00754276 0.0176403 0.0125996 0.0136718 0.0198993 0.0157818 0.0180252 0.0222813 0.0326574
0.0206091 0.0247467 0.0122416 0.0215424 0.0273059 0.00954101 0.0224523 0.0300046 0.0180784 0.0211309
0.0328484 0.0265093 0.0188092 0.0357758 0.0344509 0.0178096 0.0387802 0.0305131 0.0157787 0.0419076
0.0434439 0.0140844 0.0451542 0.0439851 0.0110071 0.0485082 0.0548107 0.0080744 0.0519435 0.0699388
0.00558363 0.0554157 0.0650947 0.00247183 0.0588947 0.073211 0.000130941 0.0623926 0.100656 -0.00343158
0.0659344 0.108087 -0.00795417 0.0695042 0.114771 -0.0126367 0.0730674 0.128011 -0.0174806 0.0765846