# vtk DataFile Version 2.0
sampleSurface
ASCII
DATASET POLYDATA
POINTS 17673 float
0.04 -0.184464 -0.06 0.04 -0.184464 -0.0559273 0.04 -0.188453 -0.0559273 0.04 -0.188453
-0.06 0.04 -0.180475 -0.06 0.04 -0.180475 -0.0559273 0.04 -0.176486 -0.06
0.04 -0.176486 -0.0559273 0.04 -0.172497 -0.06 0.04 -0.172497 -0.0559273 0.04
-0.168508 -0.06 0.04 -0.168508 -0.0559273 0.04 -0.164519 -0.06 0.04 -0.164519
-0.0559273 0.04 -0.16053 -0.06 0.04 -0.16053 -0.0559273 0.04 -0.156541 -0.06
0.04 -0.156541 -0.0559273 0.04 -0.152552 -0.06 0.04 -0.152552 -0.0559273 0.04
-0.148563 -0.06 0.04 -0.148563 -0.0559273 0.04 -0.144574 -0.06 0.04 -0.144574
-0.0559273 0.04 -0.140586 -0.06 0.04 -0.140586 -0.0559273 0.04 -0.136596 -0.06
0.04 -0.136596 -0.0559273 0.04 -0.132607 -0.06 0.04 -0.132607 -0.0559273 0.04
-0.128619 -0.06 0.04 -0.128619 -0.0559273 0.04 -0.12463 -0.06 0.04 -0.12463
-0.0559273 0.04 -0.120641 -0.06 0.04 -0.120641 -0.0559273 0.04 -0.116652 -0.06
0.04 -0.116652 -0.0559273 0.04 -0.112663 -0.06 0.04 -0.112663 -0.0559273 0.04
-0.108674 -0.06 0.04 -0.108674 -0.0559273 0.04 -0.104685 -0.06 0.04 -0.104685
-0.0559273 0.04 -0.100696 -0.06 0.04 -0.100696 -0.0559273 0.04 -0.0967069 -0.06
0.04 -0.0967069 -0.0559273 0.04 -0.0927179 -0.06 0.04 -0.0927179 -0.0559273 0.04
-0.088739 -0.06 0.04 -0.0887391 -0.0559273 0.04 -0.0847775 -0.06 0.04 -0.0847775
-0.0559273 0.04 -0.0809835 -0.06 0.04 -0.0809835 -0.0559273 0.04 -0.0773956 -0.06
0.04 -0.0773956 -0.0559273 0.04 -0.0739968 -0.06 0.04 -0.0739968 -0.0559273 0.04
-0.0707629 -0.06 0.04 -0.0707629 -0.0559273 0.04 -0.0676784 -0.06 0.04 -0.0676784
-0.0559273 0.04 -0.0647301 -0.06 0.04 -0.0647301 -0.0559273 0.04 -0.0619431 -0.06
0.04 -0.0619431 -0.0559273 0.04 -0.0593321 -0.06 0.04 -0.0593321 -0.0559273 0.04
-0.0568459 -0.06 0.04 -0.0568459 -0.0559273 0.04 -0.0544545 -0.06 0.04 -0.0544545
-0.0559273 0.04 -0.0521732 -0.06 0.04 -0.0521732 -0.0559273 0.04 -0.0500374 -0.06
0.04 -0.0500374 -0.0559273 0.04 -0.0480123 -0.06 0.04 -0.0480123 -0.0559273 0.04
-0.046084 -0.06 0.04 -0.046084 -0.0559273 0.04 -0.0442254 -0.06 0.04 -0.0442254
-0.0559273 0.04 -0.0424486 -0.06 0.04 -0.0424486 -0.0559273 0.04 -0.0407648 -0.06
0.04 -0.0407648 -0.0559273 0.04 -0.0391821 -0.06 0.04 -0.0391821 -0.0559273 0.04
-0.0376993 -0.06 0.04 -0.0376993 -0.0559273 0.04 -0.0362943 -0.06 0.04 -0.0362943
-0.0559273 0.04 -0.0349524 -0.06 0.04 -0.0349524 -0.0559273 0.04 -0.0336651 -0.06
0.04 -0.0336651 -0.0559273 0.04 -0.0324289 -0.06 0.04 -0.0324289 -0.0559273 0.04
-0.0312728 -0.06 0.04 -0.0312728 -0.0559273 0.04 -0.0301752 -0.06 0.04 -0.0301752
-0.0559273 0.04 -0.0291177 -0.06 0.04 -0.0291177 -0.0559273 0.04 -0.0281145 -0.06
0.04 -0.0281145 -0.0559273 0.04 -0.0271661 -0.06 0.04 -0.0271661 -0.0559273 0.04
-0.0262754 -0.06 0.04 -0.0262754 -0.0559273 0.04 -0.02543 -0.06 0.04 -0.02543
-0.0559273 0.04 -0.0246256 -0.06 0.04 -0.0246256 -0.0559273 0.04 -0.0238573 -0.06
0.04 -0.0238573 -0.0559273 0.04 -0.023094 -0.0559273 0.04 -0.023094 -0.06 0.04
-0.184464 -0.0519514 0.04 -0.188453 -0.0519514 0.04 -0.180475 -0.0519514 0.04 -0.176486
-0.0519514 0.04 -0.172497 -0.0519514 0.04 -0.168508 -0.0519514 0.04 -0.164519 -0.0519514
0.04 -0.16053 -0.0519514 0.04 -0.156541 -0.0519514 0.04 -0.152552 -0.0519514 0.04
-0.148563 -0.0519514 0.04 -0.144574 -0.0519514 0.04 -0.140586 -0.0519514 0.04 -0.136596
-0.0519514 0.04 -0.132607 -0.0519514 0.04 -0.128619 -0.0519514 0.04 -0.12463 -0.0519514
0.04 -0.120641 -0.0519514 0.04 -0.116652 -0.0519514 0.04 -0.112663 -0.0519514 0.04
-0.108674 -0.0519514 0.04 -0.104685 -0.0519514 0.04 -0.100696 -0.0519514 0.04 -0.0967069
-0.0519514 0.04 -0.0927179 -0.0519514 0.04 -0.088739 -0.0519514 0.04 -0.0847775 -0.0519514
0.04 -0.0809835 -0.0519514 0.04 -0.0773956 -0.0519514 0.04 -0.0739968 -0.0519514 0.04
-0.0707629 -0.0519514 0.04 -0.0676784 -0.0519514 0.04 -0.0647301 -0.0519514 0.04 -0.0619431
-0.0519514 0.04 -0.0593321 -0.0519514 0.04 -0.0568459 -0.0519514 0.04 -0.0544545 -0.0519514
0.04 -0.0521732 -0.0519514 0.04 -0.0500374 -0.0519514 0.04 -0.0480123 -0.0519514 0.04
-0.046084 -0.0519514 0.04 -0.0442254 -0.0519514 0.04 -0.0424486 -0.0519514 0.04 -0.0407648
-0.0519514 0.04 -0.0391821 -0.0519514 0.04 -0.0376993 -0.0519514 0.04 -0.0362943 -0.0519514
0.04 -0.0349524 -0.0519514 0.04 -0.0336651 -0.0519514 0.04 -0.0324289 -0.0519514 0.04
-0.0312728 -0.0519514 0.04 -0.0301752 -0.0519514 0.04 -0.0291177 -0.0519514 0.04 -0.0281145
-0.0519514 0.04 -0.0271661 -0.0519514 0.04 -0.0262754 -0.0519514 0.04 -0.02543 -0.0519514
0.04 -0.0246256 -0.0519514 0.04 -0.0238573 -0.0519514 0.04 -0.023094 -0.0519514 0.04
-0.184464 -0.0479754 0.04 -0.188453 -0.0479754 0.04 -0.180475 -0.0479754 0.04 -0.176486
-0.0479754 0.04 -0.172497 -0.0479754 0.04 -0.168508 -0.0479754 0.04 -0.164519 -0.0479754
0.04 -0.16053 -0.0479754 0.04 -0.156541 -0.0479754 0.04 -0.152552 -0.0479754 0.04
-0.148563 -0.0479754 0.04 -0.144574 -0.0479754 0.04 -0.140586 -0.0479754 0.04 -0.136596
-0.0479754 0.04 -0.132607 -0.0479754 0.04 -0.128619 -0.0479754 0.04 -0.12463 -0.0479754
0.04 -0.120641 -0.0479754 0.04 -0.116652 -0.0479754 0.04 -0.112663 -0.0479754 0.04
-0.108674 -0.0479754 0.04 -0.104685 -0.0479754 0.04 -0.100696 -0.0479754 0.04 -0.0967069
-0.0479754 0.04 -0.0927179 -0.0479754 0.04 -0.0887391 -0.0479754 0.04 -0.0847775 -0.0479754
0.04 -0.0809835 -0.0479754 0.04 -0.0773956 -0.0479754 0.04 -0.0739968 -0.0479754 0.04
-0.0707629 -0.0479754 0.04 -0.0676784 -0.0479754 0.04 -0.0647301 -0.0479754 0.04 -0.0619431
-0.0479754 0.04 -0.0593321 -0.0479754 0.04 -0.0568459 -0.0479754 0.04 -0.0544545 -0.0479754
0.04 -0.0521732 -0.0479754 0.04 -0.0500374 -0.0479754 0.04 -0.0480123 -0.0479754 0.04
-0.046084 -0.0479754 0.04 -0.0442254 -0.0479754 0.04 -0.0424486 -0.0479754 0.04 -0.0407648
-0.0479754 0.04 -0.0391821 -0.0479754 0.04 -0.0376993 -0.0479754 0.04 -0.0362943 -0.0479754
0.04 -0.0349524 -0.0479754 0.04 -0.0336651 -0.0479754 0.04 -0.0324289 -0.0479754 0.04
-0.0312728 -0.0479754 0.04 -0.0301752 -0.0479754 0.04 -0.0291177 -0.0479754 0.04 -0.0281145
-0.0479754 0.04 -0.0271661 -0.0479754 0.04 -0.0262754 -0.0479754 0.04 -0.02543 -0.0479754
0.04 -0.0246256 -0.0479754 0.04 -0.0238573 -0.0479754 0.04 -0.023094 -0.0479754 0.04
-0.184464 -0.0439994 0.04 -0.188453 -0.0439994 0.04 -0.180475 -0.0439994 0.04 -0.176486
-0.0439994 0.04 -0.172497 -0.0439994 0.04 -0.168508 -0.0439994 0.04 -0.164519 -0.0439994
0.04 -0.16053 -0.0439994 0.04 -0.156541 -0.0439994 0.04 -0.152552 -0.0439994 0.04
-0.148563 -0.0439994 0.04 -0.144574 -0.0439994 0.04 -0.140586 -0.0439994 0.04 -0.136596
-0.0439994 0.04 -0.132607 -0.0439994 0.04 -0.128619 -0.0439994 0.04 -0.12463 -0.0439994
0.04 -0.120641 -0.0439994 0.04 -0.116652 -0.0439994 0.04 -0.112663 -0.0439994 0.04
-0.108674 -0.0439994 0.04 -0.104685 -0.0439994 0.04 -0.100696 -0.0439994 0.04 -0.0967069
-0.0439994 0.04 -0.0927179 -0.0439994 0.04 -0.0887391 -0.0439994 0.04 -0.0847775 -0.0439994
0.04 -0.0809835 -0.0439994 0.04 -0.0773956 -0.0439994 0.04 -0.0739968 -0.0439994 0.04
-0.0707629 -0.0439994 0.04 -0.0676784 -0.0439994 0.04 -0.0647301 -0.0439994 0.04 -0.0619431
-0.0439994 0.04 -0.0593321 -0.0439994 0.04 -0.0568459 -0.0439994 0.04 -0.0544545 -0.0439994
0.04 -0.0521732 -0.0439994 0.04 -0.0500374 -0.0439994 0.04 -0.0480123 -0.0439994 0.04
-0.046084 -0.0439994 0.04 -0.0442254 -0.0439994 0.04 -0.0424486 -0.0439994 0.04 -0.0407648
-0.0439994 0.04 -0.0391821 -0.0439994 0.04 -0.0376993 -0.0439994 0.04 -0.0362943 -0.0439994
0.04 -0.0349524 -0.0439994 0.04 -0.0336651 -0.0439994 0.04 -0.0324289 -0.0439994 0.04
-0.0312728 -0.0439994 0.04 -0.0301752 -0.0439994 0.04 -0.0291177 -0.0439994 0.04 -0.0281145
-0.0439994 0.04 -0.0271661 -0.0439994 0.04 -0.0262754 -0.0439994 0.04 -0.02543 -0.0439994
0.04 -0.0246256 -0.0439994 0.04 -0.0238573 -0.0439994 0.04 -0.023094 -0.0439994 0.04
-0.184464 -0.0400235 0.04 -0.188453 -0.0400235 0.04 -0.180475 -0.0400235 0.04 -0.176486
-0.0400235 0.04 -0.172497 -0.0400235 0.04 -0.168508 -0.0400235 0.04 -0.164519 -0.0400235
0.04 -0.16053 -0.0400235 0.04 -0.156541 -0.0400235 0.04 -0.152552 -0.0400235 0.04
-0.148563 -0.0400235 0.04 -0.144574 -0.0400235 0.04 -0.140586 -0.0400235 0.04 -0.136596
-0.0400235 0.04 -0.132607 -0.0400235 0.04 -0.128619 -0.0400235 0.04 -0.12463 -0.0400235
0.04 -0.120641 -0.0400235 0.04 -0.116652 -0.0400235 0.04 -0.112663 -0.0400235 0.04
-0.108674 -0.0400235 0.04 -0.104685 -0.0400235 0.04 -0.100696 -0.0400235 0.04 -0.0967069
-0.0400235 0.04 -0.0927179 -0.0400235 0.04 -0.088739 -0.0400235 0.04 -0.0847775 -0.0400235
0.04 -0.0809835 -0.0400235 0.04 -0.0773956 -0.0400235 0.04 -0.0739968 -0.0400235 0.04
-0.0707629 -0.0400235 0.04 -0.0676784 -0.0400235 0.04 -0.0647301 -0.0400235 0.04 -0.0619431
-0.0400235 0.04 -0.0593321 -0.0400235 0.04 -0.0568459 -0.0400235 0.04 -0.0544545 -0.0400235
0.04 -0.0521732 -0.0400235 0.04 -0.0500374 -0.0400235 0.04 -0.0480123 -0.0400235 0.04
-0.046084 -0.0400235 0.04 -0.0442254 -0.0400235 0.04 -0.0424486 -0.0400235 0.04 -0.0407648
-0.0400235 0.04 -0.0391821 -0.0400235 0.04 -0.0376993 -0.0400235 0.04 -0.0362943 -0.0400235
0.04 -0.0349524 -0.0400235 0.04 -0.0336651 -0.0400235 0.04 -0.0324289 -0.0400235 0.04
-0.0312728 -0.0400235 0.04 -0.0301752 -0.0400235 0.04 -0.0291177 -0.0400235 0.04 -0.0281145
-0.0400235 0.04 -0.0271661 -0.0400235 0.04 -0.0262754 -0.0400235 0.04 -0.02543 -0.0400235
0.04 -0.0246256 -0.0400235 0.04 -0.0238573 -0.0400235 0.04 -0.023094 -0.0400235 0.04
-0.184464 -0.0360475 0.04 -0.188453 -0.0360475 0.04 -0.180475 -0.0360475 0.04 -0.176486
-0.0360475 0.04 -0.172497 -0.0360475 0.04 -0.168508 -0.0360475 0.04 -0.164519 -0.0360475
0.04 -0.16053 -0.0360475 0.04 -0.156541 -0.0360475 0.04 -0.152552 -0.0360475 0.04
-0.148563 -0.0360475 0.04 -0.144574 -0.0360475 0.04 -0.140586 -0.0360475 0.04 -0.136596
-0.0360475 0.04 -0.132607 -0.0360475 0.04 -0.128619 -0.0360475 0.04 -0.12463 -0.0360475
0.04 -0.120641 -0.0360475 0.04 -0.116652 -0.0360475 0.04 -0.112663 -0.0360475 0.04
-0.108674 -0.0360475 0.04 -0.104685 -0.0360475 0.04 -0.100696 -0.0360475 0.04 -0.0967069
[...]
POINT_DATA 17673
FIELD attributes 1
Mode10 3 17673 float
0 0 0 -1.50339e-06 0 -0.000334162 0 16.6 0 0 8.25622
0 0 0 0 -3.25245e-06 0 -0.000742103 0 0 0
-5.51595e-06 0.0437511 -0.00120601 0 0 0 -8.81698e-06 0.0622434 -0.00172685 0
0 0 -1.34562e-05 0.0184923 -0.00225092 0 0 0 -1.97173e-05 0.0104046
-0.00277756 0 0 0 -2.77235e-05 0.0104046 -0.0032905 0 0 0
-3.77845e-05 0.0199519 -0.00380755 0 0 0 -5.0417e-05 -0.0130954 -0.00429785 0
0 0 -6.51317e-05 -0.0361853 -0.00476967 0 0 0 -8.25688e-05 -0.00143158
-0.00519519 0 0 0 -0.000102751 0.0176104 -0.00551818 0 0 0
-0.000125958 0.0558359 -0.0058366 0 0 0 -0.000153351 0.0476741 -0.00614506 0
0 0 -0.000186073 0.00472363 -0.0064236 0 0 0 -0.000224521 0.0215455
-0.00674845 0 0 0 -0.00026961 0.0516444 -0.00715857 0 0 0
-0.000324825 0.0460971 -0.00785364 0 0 0 -0.000391587 0.0622402 -0.00910015 0
0 0 -0.000471528 0.100001 -0.0107747 0 0 0 -0.000568355 0.097598
-0.0120661 0 0 0 -0.000685255 0.0503892 -0.0120426 0 0 0
-0.000829884 0.0581767 -0.0103596 0 0 0 -0.000997677 0.092221 -0.00734777 0
0 0 -0.00119883 0.0862333 -0.00374162 0 0 0 -0.0014345 0.0966193
-0.000399864 0 0 0 -0.00168258 0.0832494 0.00177913 0 0 0
-0.0019449 0.0842121 0.00232359 0 0 0 -0.00220611 0.113983 0.00138216 0
0 0 -0.00247138 0.127913 -0.000614241 0 0 0 -0.00272504 0.117341
-0.00282483 0 0 0 -0.0029567 0.091746 -0.00451773 0 0 0
-0.00316085 0.111107 -0.00580848 0 0 0 -0.00330042 0.120323 -0.00683276 0
0 0 -0.00339158 0.118325 -0.00771664 0 0 0 -0.00345609 0.124974
-0.00871452 0 0 0 -0.00343012 0.12893 -0.00964701 0 0 0
-0.00331261 0.143911 -0.0102418 0 0 0 -0.00310971 0.131376 -0.0106882 0
0 0 -0.00280686 0.147303 -0.0109054 0 0 0 -0.00241619 0.154893
-0.0105481 0 0 0 -0.00191594 0.13882 -0.0100122 0 0 0
-0.00128929 0.138461 -0.0093107 0 0 0 -0.000505139 0.134682 -0.0086841 0
0 0 0.00042731 0.151756 -0.00826284 0 0 0 0.0014426 0.137631
-0.0075962 0 0 0 0.00259871 0.124572 -0.00707156 0 0 0
0.00394685 0.141121 -0.00661545 0 0 0 0.00542508 0.12877 -0.00595538 0
0 0 0.00706065 0.140503 -0.00523344 0 0 0 0.00885794 0.170991
-0.00456065 0 0 0 0.0106971 0.158496 -0.00372744 0 0 0
0.012682 0.138192 -0.00272972 0 0 0 0.014882 0.136777 -0.00203046 0
0 0 0.0171836 0.14668 -0.00134549 0 0 0 0.0196056 0.15813
-0.000446294 0 0 0 0.0221747 0.155102 0.000782927 0 0 0
0.024761 0.148852 0.00182578 0.0274541 0.140641 0.00294424 0 0 0 -1.24597e-06
0 -0.000391011 0 16.6 0 -2.58157e-06 0 -0.000873756 -4.175e-06 0.0435739
-0.00144409 -6.34511e-06 0.0435739 -0.00208556 -9.28962e-06 0 -0.00278649 -1.29818e-05 -0.00808909 -0.00351546
-1.73668e-05 0.0152189 -0.00422587 -2.26113e-05 0.0303061 -0.00496339 -2.89162e-05 0.0118586 -0.0056871 -3.60699e-05
-0.0355216 -0.00639816 -4.42446e-05 -0.0496107 -0.00708434 -5.38153e-05 0.0110247 -0.007701 -6.49882e-05 -0.0117967
-0.00832606 -7.81786e-05 -0.0849858 -0.00896588 -9.42643e-05 -0.0819547 -0.00955416 -0.000114249 -0.0165883 -0.0101551
-0.000136223 0.0243958 -0.0107946 -0.000163577 0.0139118 -0.0114475 -0.00019927 0.0107612 -0.0120945 -0.000242309
0.0457828 -0.0126753 -0.00029722 0.0622058 -0.0130369 -0.000367601 0.0219538 -0.0131041 -0.000456008 0.0218486
-0.0129141 -0.000559828 0.0474181 -0.0125854 -0.000692758 0.0514975 -0.0121626 -0.000853211 0.0697335 -0.0114284
-0.00102267 0.070122 -0.0105211 -0.0011914 0.0781079 -0.0101033 -0.00134259 0.0993522 -0.010203 -0.0014903
0.121941 -0.0105924 -0.00162903 0.0974113 -0.011079 -0.00173056 0.0823859 -0.0112339 -0.00177022 0.0925248
-0.0112018 -0.00175134 0.0992662 -0.0111834 -0.00169352 0.114291 -0.0111439 -0.00156937 0.0988934 -0.0115973
-0.00133684 0.095063 -0.0126764 -0.00103587 0.103759 -0.0136182 -0.000633284 0.103417 -0.0140603 -8.65281e-05
0.109463 -0.0142692 0.00054192 0.102987 -0.0141519 0.00128557 0.079374 -0.0136389 0.00218541 0.0702861
-0.0131127 0.00320752 0.077353 -0.0130128 0.00434971 0.108606 -0.013013 0.00562029 0.103704 -0.0126938
0.00701945 0.098674 -0.0126821 0.00854194 0.111136 -0.0125582 0.0102072 0.0893707 -0.0118302 0.0120619
0.0888946 -0.0111142 0.0140531 0.113855 -0.0104978 0.0160781 0.119552 -0.0106355 0.0182529 0.112002
-0.00998299 0.0205982 0.106362 -0.00874397 0.0230175 0.107665 -0.00793458 0.0255735 0.135811 -0.00687693
0.0282232 0.15282 -0.00601985 0.0308688 0.146521 -0.00664842 0.0336594 0.13305 -0.00754643 -1.1886e-06
0 -0.00055796 0 16.6 0 -2.17587e-06 0 -0.00122474 -3.09276e-06 0
-0.00199244 -4.1227e-06 0 -0.00283723 -4.95466e-06 0 -0.00376569 -5.42883e-06 -0.0080891 -0.00472951
-5.58868e-06 0.0174583 -0.00566744 -5.34495e-06 0.0249905 -0.00663229 -4.56172e-06 0.0219485 -0.0075918 -3.26769e-06
0.0540974 -0.00850486 -9.86916e-07 0.0485119 -0.00938678 1.85288e-06 0.0286253 -0.0102333 4.6317e-06 0.00687206
-0.0110467 8.17068e-06 -0.0364018 -0.0118591 1.17559e-05 -0.072723 -0.0125987 1.50885e-05 -0.0468006 -0.0133033
1.75453e-05 0.0347808 -0.0139865 1.80961e-05 0.0813051 -0.014583 1.53635e-05 0.0539751 -0.0150638 7.96682e-06
0.0309834 -0.0154058 -5.65444e-06 0.0739337 -0.0157827 -2.9714e-05 0.0638278 -0.016476 -6.30743e-05 0.0266336
-0.0174653 -0.000106661 0.037226 -0.0187223 -0.000172648 0.0470848 -0.0199628 -0.000257021 0.0674075 -0.0203506
-0.000349546 0.0717324 -0.0196441 -0.000435861 0.0778382 -0.0183902 -0.000500857 0.0905065 -0.0166696 -0.000549053
0.0913158 -0.0146604 -0.000583006 0.0707121 -0.0128107 -0.000576422 0.0808174 -0.0116052 -0.000480158 0.0802812
-0.0110295 -0.000325665 0.0702915 -0.0109327 -0.000131476 0.0808059 -0.0113733 0.00013765 0.0693612 -0.0125738
0.000479577 0.0860102 -0.0139518 0.000895556 0.0987284 -0.0148775 0.00138365 0.10282 -0.0158848 0.0019828
0.116353 -0.0171033 0.00266838 0.108493 -0.0186051 0.0034608 0.0814437 -0.0199578 0.0043837 0.0692107
-0.020879 0.00540449 0.0841447 -0.0217333 0.00654883 0.110242 -0.0236669 0.00784079 0.117608 -0.0253521
0.00923354 0.109859 -0.0263334 0.0107054 0.106202 -0.026759 0.0123123 0.100893 -0.0257792 0.0141066
0.110136 -0.02494 0.0160123 0.116158 -0.0242127 0.0179546 0.104415 -0.0246679 0.0200296 0.117071
-0.0246953 0.0222894 0.121999 -0.0220533 0.024621 0.113417 -0.0204774 0.0270227 0.152729 -0.0212051
0.0295556 0.160154 -0.0197485 0.032073 0.149026 -0.0190848 0.0347916 0.160375 -0.0193024 -9.34186e-07
0 -0.000794654 0 16.6 0 -1.35597e-06 0 -0.00174212 -1.37261e-06 0
-0.00279162 -1.00897e-06 0 -0.00389697 3.66879e-07 0 -0.00506439 2.93879e-06 0 -0.00626274
6.88597e-06 0.00223943 -0.00744736 1.24338e-05 -0.0117554 -0.00861556 1.95312e-05 0.00101973 -0.00975221 2.89229e-05
0.0752021 -0.010829 4.038e-05 0.128131 -0.0118461 5.34201e-05 0.144648 -0.0127881 6.96359e-05 0.141913
-0.0137091 8.8471e-05 0.126112 -0.0145817 0.000109233 0.0687848 -0.0153627 0.000131898 -0.00279821 -0.0161277
0.000155606 0.035029 -0.0168784 0.000181882 0.112001 -0.0176158 0.000209416 0.104983 -0.018289 0.000235662
0.0393876 -0.0190225 0.000259988 0.0313791 -0.0198475 0.00027897 0.0478008 -0.0208892 0.000293759 0.0237568
-0.022165 0.000299451 0.0258779 -0.0235635 0.000281226 0.0284111 -0.0244861 0.000253346 0.036031 -0.0240685
0.000229271 0.0523113 -0.0221035 0.000213037 0.0625394 -0.0187303 0.000220406 0.0638418 -0.0148083 0.000254167
0.0470663 -0.0113853 0.000314415 0.0497556 -0.00952618 0.000418222 0.051704 -0.00997031 0.000574222 0.046143
-0.0120345 0.000760188 0.0447917 -0.0146223 0.000981313 0.0547731 -0.017685 0.00125638 0.0709266 -0.0210838
0.00157319 0.0971985 -0.023747 0.00195061 0.0827277 -0.0255722 0.00239007 0.0600887 -0.0275054 0.00289509
0.0958287 -0.0294986 0.00347181 0.0971075 -0.0322123 0.0041471 0.0780463 -0.0349508 0.00492175 0.0834591
-0.036427 0.00580098 0.10082 -0.0373722 0.0068218 0.120727 -0.0406382 0.00796727 0.122901 -0.0419787
0.00921833 0.122839 -0.0421748 0.0105709 0.12552 -0.0448218 0.0120257 0.140482 -0.0441859 0.0136383
0.160371 -0.0422327 0.0153819 0.147583 -0.0425507 0.01722 0.133012 -0.0425149 0.019163 0.157263
-0.0410382 0.0212559 0.171479 -0.0392707 0.0235119 0.152452 -0.0369446 0.0258186 0.164297 -0.0356571
0.0282424 0.139254 -0.0330867 0.0307288 0.133825 -0.0291244 0.0334075 0.176836 -0.026 -5.82196e-07
0 -0.0010377 0 16.6 0 -3.99361e-07 0 -0.00224129 5.968e-07 0
-0.00356001 2.45499e-06 0 -0.00493914 5.74927e-06 0 -0.00634474 1.09876e-05 0 -0.00775567
1.85998e-05 0 -0.00916657 2.87782e-05 -0.0058229 -0.0105096 4.15736e-05 -0.0365889 -0.0117577 5.76222e-05
-0.0134369 -0.0129394 7.61499e-05 0.081985 -0.0140382 9.78027e-05 0.15333 -0.0150165 0.000124805 0.177629
-0.015966 0.000155242 0.184144 -0.0168526 0.000188748 0.157031 -0.0176216 0.000226607 0.0673132 -0.0184119
0.000268208 0.00835637 -0.0191623 0.000314226 0.0119395 -0.0199393 0.000361492 0.0259088 -0.0206445 0.000411764
-0.00793021 -0.0213707 0.000462821 -0.0470849 -0.022403 0.000513057 -0.0043265 -0.0238843 0.000559723 0.0433298
-0.0256496 0.000591989 0.0748659 -0.0270892 0.000601939 0.0784057 -0.0270353 0.000614743 0.0357213 -0.0245767
0.000647425 0.018163 -0.0201843 0.000701037 0.0418338 -0.0153002 0.000776111 0.0501828 -0.0116117 0.000863426
0.0327568 -0.0103783 0.000966202 0.0272568 -0.0119797 0.00108438 0.0184765 -0.0153493 0.00120381 0.0366736
-0.0193988 0.00132496 0.0490596 -0.0235641 0.00147964 0.0538415 -0.0279553 0.00167387 0.0889414 -0.0321386
0.00191154 0.0761115 -0.0358898 0.00219236 0.0524043 -0.0397978 0.00254209 0.0545143 -0.0425001 0.00296499
0.0874116 -0.0446196 0.00344809 0.101691 -0.0479458 0.00401945 0.0772416 -0.0515879 0.00468442 0.0818514
-0.0539583 0.00546192 0.0921207 -0.0554384 0.00636679 0.117138 -0.0566697 0.00739282 0.134569 -0.0588901
0.00854177 0.126992 -0.0613665 0.00977972 0.123007 -0.0623343 0.0111373 0.140529 -0.0624709 0.0126385
0.149389 -0.0604175 0.0142522 0.14335 -0.0600562 0.0160095 0.13798 -0.0594916 0.0178636 0.149042
-0.0558006 0.0198526 0.165647 -0.0554837 0.0220529 0.151689 -0.053312 0.0243548 0.151595 -0.0484355
0.0267533 0.133899 -0.0471605 0.0291775 0.143938 -0.0438908 0.0317633 0.175078 -0.0396347 -1.71594e-07
0 -0.00129843 0 16.6 0 6.51271e-07 0 -0.00276055 2.67247e-06 0
-0.00434262 6.0562e-06 0 -0.00598531 1.13415e-05 0 -0.00765605 1.90363e-05 0 -0.00929028
2.98737e-05 0 -0.010864 4.40875e-05 0.000616759 -0.0123404 6.14772e-05 -0.0309014 -0.0136934 8.25246e-05
-0.0528421 -0.0149344 0.000107407 0.0117598 -0.0160281 0.000136539 0.101036 -0.0169911 0.000171093 0.158238
-0.0178986 0.000209863 0.198106 -0.0187139 0.000252611 0.206635 -0.0194377 0.000300369 0.145383 -0.0202158
0.000353838 0.0131792 -0.0209344 0.00041306 -0.0833502 -0.0217086 0.000475327 -0.0636032 -0.0224982 0.000542408
-0.0229447 -0.0233435 0.000610838 -0.0235244 -0.0246639 0.000680368 -0.0105622 -0.0264723 0.000743399 0.03894
-0.0281139 0.000790763 0.0734022 -0.0285804 0.00082726 0.0637326 -0.0268574 0.000878536 0.0264278 -0.0225112
0.000957517 0.00913183 -0.0168739 0.00105126 0.0355785 -0.0125656 0.0011488 0.0457497 -0.0114001 0.00124632
0.0242639 -0.0134557 0.00132472 0.0206537 -0.0174697 0.00137604 0.0341199 -0.0222297 0.00142388 0.0475111
-0.0271355 0.00148549 0.0632296 -0.0322176 0.00158229 0.0731799 -0.0377403 0.00170998 0.0886716 -0.0429043
0.00187663 0.0693921 -0.0479666 0.00209229 0.0571898 -0.0529805 0.00236154 0.0724799 -0.0569007 0.00269087
0.0859517 -0.0610488 0.00308842 0.104153 -0.0657219 0.00356726 0.0831666 -0.070025 0.00413696 0.0884885
-0.0734624 0.00482411 0.112476 -0.0764366 0.0056309 0.118925 -0.0759089 0.00655883 0.12832 -0.0782522
0.00760138 0.119891 -0.0835454 0.00873304 0.11956 -0.0830862 0.0100172 0.14206 -0.0829592 0.0114453
0.131905 -0.0826315 0.0129769 0.11799 -0.0815911 0.0146886 0.121905 -0.0806847 0.0164906 0.140072
-0.0761703 0.0183894 0.147978 -0.0730137 0.0205336 0.134875 -0.0713771 0.0228259 0.164159 -0.0673614
0.025176 0.170981 -0.0644995 0.0275591 0.166704 -0.0604263 0.0301721 0.173218 -0.0549787 2.30315e-07
0 -0.00154537 0 16.6 0 1.7208e-06 0 -0.00326368 4.7026e-06 0
-0.00511572 9.54528e-06 0 -0.00702629 1.67894e-05 0 -0.00893369 2.68494e-05 0 -0.0107696
4.04567e-05 0 -0.012469 5.80565e-05 0 -0.0140446 7.94924e-05 -0.00878939 -0.0154547 0.00010514
-0.0453647 -0.0166967 0.00013548 -0.0384091 -0.0177659 0.000170422 0.0384752 -0.0186601 0.000210791 0.113507
-0.0194766 0.000255327 0.166964 -0.0202018 0.000304602 0.2008 -0.0208041 0.000359907 0.185559 -0.0215634
0.000420332 0.0585815 -0.0222669 0.000485974 -0.0881998 -0.0229992 0.000559019 -0.120154 -0.0238749 0.000637339
-0.0549782 -0.0248792 0.000716875 0.00327247 -0.0263702 0.000796839 0.0162424 -0.0280563 0.000869967 0.0356917
-0.0292745 0.000931228 0.0394155 -0.0289196 0.000989198 0.0218437 -0.0261031 0.00106486 0.0214835 -0.0209122
0.00116438 0.0304938 -0.0151172 0.00126998 0.0342617 -0.0116591 0.00136502 0.0195395 -0.0123638 0.00143776
0.00559377 -0.0160597 0.00147041 0.0189431 -0.0211637 0.00146944 0.0401554 -0.0275048 0.00146806 0.0390856
-0.0341703 0.00149097 0.0449946 -0.0414303 0.00153044 0.0689982 -0.0481731 0.00158785 0.0690426 -0.0545458
0.00168947 0.0647489 -0.0618484 0.00184831 0.0507197 -0.0684086 0.00204937 0.05584 -0.0735336 0.00228993
0.0631107 -0.0787414 0.00260663 0.0577052 -0.0858049 0.00299989 0.0782729 -0.0907242 0.00348362 0.0906573
-0.0935718 0.00408492 0.115286 -0.0980925 0.00479393 0.137972 -0.10089 0.0056213 0.110596 -0.10241
0.00656608 0.10181 -0.106461 0.00758902 0.126439 -0.108386 0.0087454 0.151901 -0.107539 0.0100791
0.148051 -0.106588 0.0115514 0.131533 -0.106293 0.0131494 0.141433 -0.10697 0.0148655 0.147924
-0.103661 0.0167409 0.150592 -0.0985119 0.0188102 0.151313 -0.0939667 0.0209962 0.176128 -0.0898269
0.0232764 0.175063 -0.0858058 0.0256539 0.165601 -0.0814567 0.028203 0.181386 -0.0766085 6.22097e-07
0 -0.00179344 0 16.6 0 2.74551e-06 0 -0.00377985 6.71136e-06 0
-0.00590666 1.2829e-05 0 -0.00808081 2.1762e-05 0 -0.0101878 3.40654e-05 0 -0.0122069
5.03321e-05 0 -0.0140515 7.12129e-05 0 -0.0156718 9.65315e-05 6.68983e-05 -0.0170668 0.000126537
-0.0215449 -0.0182506 0.000161287 -0.0501572 -0.0192329 0.000201435 -0.0220621 -0.0200295 0.000246561 0.0531354
-0.0207218 0.000295759 0.122121 -0.0213069 0.000350038 0.163745 -0.02181 0.000410307 0.166818 -0.0224789
0.000475232 0.0943544 -0.0232668 0.000545014 -0.0287441 -0.0240682 0.000622617 -0.103707 -0.0249566 0.000706735
-0.0824764 -0.0261067 0.000792124 -0.00618639 -0.0274599 0.000878418 0.0735541 -0.0287814 0.000960803 0.102827
-0.0298008 0.001032 0.0571339 -0.0291256 0.00110029 0.0121585 -0.0257399 0.00118264 0.0149128 -0.0199276
0.00128564 0.0379963 -0.0140154 0.00139149 0.0265086 -0.0113231 0.00147225 0.00500227 -0.0129857 0.00150952
0.0355478 -0.0177003 0.0015075 0.0408697 -0.024214 0.00147926 0.0383556 -0.0319015 0.00145488 0.0363966
-0.0398015 0.00144361 0.0276648 -0.0483861 0.00143508 0.0550762 -0.0566894 0.00144274 0.052369 -0.0651816
0.00148339 0.0358301 -0.0746289 0.00157191 0.0391693 -0.0828683 0.00170046 0.0560186 -0.0885552 0.00187406
0.0640184 -0.0950392 0.00211229 0.0688104 -0.104633 0.00241503 0.0874265 -0.11048 0.00280369 0.077528
-0.114613 0.0033012 0.0867197 -0.120413 0.00391557 0.130616 -0.125623 0.0046532 0.126006 -0.129703
0.00550117 0.100185 -0.130977 0.00641039 0.10232 -0.133799 0.00743827 0.144943 -0.135743 0.00868172
0.147864 -0.133405 0.0100434 0.133617 -0.133803 0.0114727 0.147182 -0.13431 0.0130483 0.138369
-0.133431 0.0148611 0.157463 -0.129869 0.0168329 0.165864 -0.122832 0.0189016 0.1559 -0.118601
0.0210929 0.17751 -0.115445 0.0233931 0.186838 -0.110861 0.0258534 0.202134 -0.104109 1.00935e-06
0 -0.00203897 0 16.6 0 3.67401e-06 0 -0.00430692 8.50267e-06 0
-0.00671077 1.58811e-05 0 -0.0091307 2.63728e-05 0 -0.0114566 4.08216e-05 0 -0.0136301
5.99038e-05 0 -0.0155671 8.41537e-05 0 -0.0171966 0.00011339 0 -0.0185237 0.000147669
0.00352568 -0.0195777 0.000186771 -0.0193166 -0.0203945 0.000231628 -0.0395467 -0.0210233 0.00028116 -0.00674552
-0.0215526 0.000334404 0.0565594 -0.0220014 0.000392561 0.113758 -0.0224487 0.000454272 0.131346 -0.0231362
0.000521207 0.0892782 -0.0240191 0.000595136 0.0124954 -0.0247363 0.000674522 -0.0370491 -0.0255677 0.000759307
-0.0493875 -0.0268685 0.000848576 -0.0210929 -0.0281159 0.000942011 0.0574754 -0.0293613 0.00103229 0.115034
-0.0303911 0.00110926 0.0776151 -0.0295376 0.00117795 0.0199386 -0.0258048 0.00125909 0.0322601 -0.0193623
0.00136078 0.0478043 -0.0129133 0.00145935 0.0184398 -0.0102139 0.00152694 0.00458905 -0.0121251 0.00154873
0.037704 -0.0174455 0.00152294 0.0527338 -0.024922 0.0014767 0.0491424 -0.0338616 0.00143789 0.0273858
-0.0434395 0.00139297 0.00955789 -0.0538033 0.00135409 0.0268326 -0.0642938 0.00131798 0.0257682 -0.074647
0.00129538 0.020502 -0.0861374 0.00132109 0.0322991 -0.0963261 0.00139675 0.0539777 -0.104723 0.00152295
0.0739568 -0.114666 0.00167299 0.0690239 -0.123367 0.00188178 0.0579832 -0.129349 0.00219481 0.050928
-0.13808 0.00258926 0.0656179 -0.145639 0.00309061 0.102018 -0.150105 0.00372458 0.102115 -0.154776
0.00444244 0.0852611 -0.157673 0.00522678 0.0747422 -0.161615 0.00614509 0.110469 -0.166095 0.00723658
0.136114 -0.167688 0.00845351 0.139459 -0.168386 0.00976998 0.143674 -0.168781 0.0111953 0.136
-0.169201 0.0128289 0.173556 -0.164956 0.0146062 0.197524 -0.159371 0.0165404 0.180144 -0.155294
0.0186121 0.165281 -0.151241 0.0207411 0.183921 -0.146236 0.0231112 0.22216 -0.136326 1.38327e-06
0 -0.00227245 0 16.6 0 4.65378e-06 0 -0.00481091 1.025e-05 0
-0.00750879 1.87954e-05 0 -0.0102003 3.10932e-05 0 -0.0127444 4.80418e-05 0 -0.0150389
7.00511e-05 0 -0.0169926 9.77753e-05 0 -0.0185562 0.00013135 0 -0.0197225 0.000170218
0.00529838 -0.0205663 0.0002137 0.0127449 -0.0211598 0.000262482 -0.0179551 -0.0215753 0.000316104 -0.0385793
-0.0219596 0.000372177 -0.00338894 -0.0223875 0.000431886 0.0501042 -0.0228225 0.000495411 0.0854438 -0.0234699
0.00056315 0.0592934 -0.0242917 0.000636839 0.00936199 -0.02505 0.000715623 -0.00346379 -0.0260787 0.000801238
0.0113353 -0.0273671 0.000894697 0.022158 -0.0287991 0.000995053 0.034204 -0.0301781 0.00109418 0.057384
-0.0309947 0.00118142 0.0184823 -0.0301702 0.00125754 -0.0262312 -0.0261674 0.00134111 0.0140883 -0.0187143
0.00144003 0.021629 -0.0107768 0.001533 -0.00647059 -0.0068953 0.00159859 0.00559307 -0.00853596 0.00162102
0.0151112 -0.0144674 0.0015905 0.0246262 -0.0229559 0.00154204 0.0224635 -0.0333816 0.00149274 0.00257076
-0.0453093 0.00142408 -0.0134562 -0.0579741 0.00135846 -0.00813285 -0.0703216 0.0012832 0.00443934 -0.0824773
0.00122293 0.00503268 -0.0964699 0.00120882 0.0171153 -0.110082 0.00123875 0.0268098 -0.122334 0.00131431
0.0367589 -0.134239 0.00139943 0.0337763 -0.143996 0.00154076 0.0327151 -0.15317 0.00177216 0.0606047
-0.164109 0.00207682 0.0881498 -0.173047 0.00247054 0.0846601 -0.179314 0.00297841 0.0591981 -0.1855
0.00356531 0.0664027 -0.191779 0.0042385 0.0774007 -0.198025 0.00504575 0.104839 -0.202886 0.00595165
0.144548 -0.205573 0.00698989 0.147474 -0.207232 0.00815092 0.148605 -0.208961 0.00942433 0.156776
-0.209806 0.0108814 0.189189 -0.206209 0.0124503 0.22009 -0.202575 0.0141534 0.217721 -0.19867
0.0160499 0.196316 -0.192872 0.0180074 0.204684 -0.188814 0.0201713 0.218996 -0.181146 1.81262e-06
0 -0.00248879 0 16.6 0 5.75342e-06 0 -0.0052994 1.23214e-05 0
-0.00829025 2.22249e-05 0 -0.0112545 3.6521e-05 0 -0.0139893 5.61107e-05 0 -0.0163486
8.15402e-05 0 -0.0182291 0.000113088 0 -0.0196017 0.000150543 0 -0.0205512 0.000193401
0 -0.0211304 0.000241213 0.0144258 -0.0214469 0.000293347 0.00303524 -0.0216768 0.000348951 -0.0419044
-0.0218599 0.000406124 -0.0443192 -0.0222346 0.000466289 -0.00900018 -0.0227249 0.000530727 0.0267781 -0.0232721
0.000597458 0.0332674 -0.0242451 0.000669672 -0.0140315 -0.0253142 0.000749302 -0.0357464 -0.0265997 0.000836188
0.0126763 -0.0280511 0.000933067 0.0612742 -0.0296614 0.00104063 0.0874307 -0.0311204 0.00115315 0.103509
-0.0318904 0.00125743 0.04197 -0.0311461 0.0013502 -0.0241713 -0.0264057 0.00145001 0.00276219 -0.0171395
0.00155476 0.0252854 -0.0070734 0.00164448 0.0172111 -0.0014501 0.00171465 0.0263526 -0.00225992 0.00175191
0.0110377 -0.00845066 0.00174233 -0.00828489 -0.0181982 0.00169927 -0.0153567 -0.0306547 0.00164063 -0.0206877