# vtk DataFile Version 2.0
sampleSurface
ASCII
DATASET POLYDATA
POINTS 17673 float
0.04 -0.184464 -0.06 0.04 -0.184464 -0.0559273 0.04 -0.188453 -0.0559273 0.04 -0.188453
-0.06 0.04 -0.180475 -0.06 0.04 -0.180475 -0.0559273 0.04 -0.176486 -0.06
0.04 -0.176486 -0.0559273 0.04 -0.172497 -0.06 0.04 -0.172497 -0.0559273 0.04
-0.168508 -0.06 0.04 -0.168508 -0.0559273 0.04 -0.164519 -0.06 0.04 -0.164519
-0.0559273 0.04 -0.16053 -0.06 0.04 -0.16053 -0.0559273 0.04 -0.156541 -0.06
0.04 -0.156541 -0.0559273 0.04 -0.152552 -0.06 0.04 -0.152552 -0.0559273 0.04
-0.148563 -0.06 0.04 -0.148563 -0.0559273 0.04 -0.144574 -0.06 0.04 -0.144574
-0.0559273 0.04 -0.140586 -0.06 0.04 -0.140586 -0.0559273 0.04 -0.136596 -0.06
0.04 -0.136596 -0.0559273 0.04 -0.132607 -0.06 0.04 -0.132607 -0.0559273 0.04
-0.128619 -0.06 0.04 -0.128619 -0.0559273 0.04 -0.12463 -0.06 0.04 -0.12463
-0.0559273 0.04 -0.120641 -0.06 0.04 -0.120641 -0.0559273 0.04 -0.116652 -0.06
0.04 -0.116652 -0.0559273 0.04 -0.112663 -0.06 0.04 -0.112663 -0.0559273 0.04
-0.108674 -0.06 0.04 -0.108674 -0.0559273 0.04 -0.104685 -0.06 0.04 -0.104685
-0.0559273 0.04 -0.100696 -0.06 0.04 -0.100696 -0.0559273 0.04 -0.0967069 -0.06
0.04 -0.0967069 -0.0559273 0.04 -0.0927179 -0.06 0.04 -0.0927179 -0.0559273 0.04
-0.088739 -0.06 0.04 -0.0887391 -0.0559273 0.04 -0.0847775 -0.06 0.04 -0.0847775
-0.0559273 0.04 -0.0809835 -0.06 0.04 -0.0809835 -0.0559273 0.04 -0.0773956 -0.06
0.04 -0.0773956 -0.0559273 0.04 -0.0739968 -0.06 0.04 -0.0739968 -0.0559273 0.04
-0.0707629 -0.06 0.04 -0.0707629 -0.0559273 0.04 -0.0676784 -0.06 0.04 -0.0676784
-0.0559273 0.04 -0.0647301 -0.06 0.04 -0.0647301 -0.0559273 0.04 -0.0619431 -0.06
0.04 -0.0619431 -0.0559273 0.04 -0.0593321 -0.06 0.04 -0.0593321 -0.0559273 0.04
-0.0568459 -0.06 0.04 -0.0568459 -0.0559273 0.04 -0.0544545 -0.06 0.04 -0.0544545
-0.0559273 0.04 -0.0521732 -0.06 0.04 -0.0521732 -0.0559273 0.04 -0.0500374 -0.06
0.04 -0.0500374 -0.0559273 0.04 -0.0480123 -0.06 0.04 -0.0480123 -0.0559273 0.04
-0.046084 -0.06 0.04 -0.046084 -0.0559273 0.04 -0.0442254 -0.06 0.04 -0.0442254
-0.0559273 0.04 -0.0424486 -0.06 0.04 -0.0424486 -0.0559273 0.04 -0.0407648 -0.06
0.04 -0.0407648 -0.0559273 0.04 -0.0391821 -0.06 0.04 -0.0391821 -0.0559273 0.04
-0.0376993 -0.06 0.04 -0.0376993 -0.0559273 0.04 -0.0362943 -0.06 0.04 -0.0362943
-0.0559273 0.04 -0.0349524 -0.06 0.04 -0.0349524 -0.0559273 0.04 -0.0336651 -0.06
0.04 -0.0336651 -0.0559273 0.04 -0.0324289 -0.06 0.04 -0.0324289 -0.0559273 0.04
-0.0312728 -0.06 0.04 -0.0312728 -0.0559273 0.04 -0.0301752 -0.06 0.04 -0.0301752
-0.0559273 0.04 -0.0291177 -0.06 0.04 -0.0291177 -0.0559273 0.04 -0.0281145 -0.06
0.04 -0.0281145 -0.0559273 0.04 -0.0271661 -0.06 0.04 -0.0271661 -0.0559273 0.04
-0.0262754 -0.06 0.04 -0.0262754 -0.0559273 0.04 -0.02543 -0.06 0.04 -0.02543
-0.0559273 0.04 -0.0246256 -0.06 0.04 -0.0246256 -0.0559273 0.04 -0.0238573 -0.06
0.04 -0.0238573 -0.0559273 0.04 -0.023094 -0.0559273 0.04 -0.023094 -0.06 0.04
-0.184464 -0.0519514 0.04 -0.188453 -0.0519514 0.04 -0.180475 -0.0519514 0.04 -0.176486
-0.0519514 0.04 -0.172497 -0.0519514 0.04 -0.168508 -0.0519514 0.04 -0.164519 -0.0519514
0.04 -0.16053 -0.0519514 0.04 -0.156541 -0.0519514 0.04 -0.152552 -0.0519514 0.04
-0.148563 -0.0519514 0.04 -0.144574 -0.0519514 0.04 -0.140586 -0.0519514 0.04 -0.136596
-0.0519514 0.04 -0.132607 -0.0519514 0.04 -0.128619 -0.0519514 0.04 -0.12463 -0.0519514
0.04 -0.120641 -0.0519514 0.04 -0.116652 -0.0519514 0.04 -0.112663 -0.0519514 0.04
-0.108674 -0.0519514 0.04 -0.104685 -0.0519514 0.04 -0.100696 -0.0519514 0.04 -0.0967069
-0.0519514 0.04 -0.0927179 -0.0519514 0.04 -0.088739 -0.0519514 0.04 -0.0847775 -0.0519514
0.04 -0.0809835 -0.0519514 0.04 -0.0773956 -0.0519514 0.04 -0.0739968 -0.0519514 0.04
-0.0707629 -0.0519514 0.04 -0.0676784 -0.0519514 0.04 -0.0647301 -0.0519514 0.04 -0.0619431
-0.0519514 0.04 -0.0593321 -0.0519514 0.04 -0.0568459 -0.0519514 0.04 -0.0544545 -0.0519514
0.04 -0.0521732 -0.0519514 0.04 -0.0500374 -0.0519514 0.04 -0.0480123 -0.0519514 0.04
-0.046084 -0.0519514 0.04 -0.0442254 -0.0519514 0.04 -0.0424486 -0.0519514 0.04 -0.0407648
-0.0519514 0.04 -0.0391821 -0.0519514 0.04 -0.0376993 -0.0519514 0.04 -0.0362943 -0.0519514
0.04 -0.0349524 -0.0519514 0.04 -0.0336651 -0.0519514 0.04 -0.0324289 -0.0519514 0.04
-0.0312728 -0.0519514 0.04 -0.0301752 -0.0519514 0.04 -0.0291177 -0.0519514 0.04 -0.0281145
-0.0519514 0.04 -0.0271661 -0.0519514 0.04 -0.0262754 -0.0519514 0.04 -0.02543 -0.0519514
0.04 -0.0246256 -0.0519514 0.04 -0.0238573 -0.0519514 0.04 -0.023094 -0.0519514 0.04
-0.184464 -0.0479754 0.04 -0.188453 -0.0479754 0.04 -0.180475 -0.0479754 0.04 -0.176486
-0.0479754 0.04 -0.172497 -0.0479754 0.04 -0.168508 -0.0479754 0.04 -0.164519 -0.0479754
0.04 -0.16053 -0.0479754 0.04 -0.156541 -0.0479754 0.04 -0.152552 -0.0479754 0.04
-0.148563 -0.0479754 0.04 -0.144574 -0.0479754 0.04 -0.140586 -0.0479754 0.04 -0.136596
-0.0479754 0.04 -0.132607 -0.0479754 0.04 -0.128619 -0.0479754 0.04 -0.12463 -0.0479754
0.04 -0.120641 -0.0479754 0.04 -0.116652 -0.0479754 0.04 -0.112663 -0.0479754 0.04
-0.108674 -0.0479754 0.04 -0.104685 -0.0479754 0.04 -0.100696 -0.0479754 0.04 -0.0967069
-0.0479754 0.04 -0.0927179 -0.0479754 0.04 -0.0887391 -0.0479754 0.04 -0.0847775 -0.0479754
0.04 -0.0809835 -0.0479754 0.04 -0.0773956 -0.0479754 0.04 -0.0739968 -0.0479754 0.04
-0.0707629 -0.0479754 0.04 -0.0676784 -0.0479754 0.04 -0.0647301 -0.0479754 0.04 -0.0619431
-0.0479754 0.04 -0.0593321 -0.0479754 0.04 -0.0568459 -0.0479754 0.04 -0.0544545 -0.0479754
0.04 -0.0521732 -0.0479754 0.04 -0.0500374 -0.0479754 0.04 -0.0480123 -0.0479754 0.04
-0.046084 -0.0479754 0.04 -0.0442254 -0.0479754 0.04 -0.0424486 -0.0479754 0.04 -0.0407648
-0.0479754 0.04 -0.0391821 -0.0479754 0.04 -0.0376993 -0.0479754 0.04 -0.0362943 -0.0479754
0.04 -0.0349524 -0.0479754 0.04 -0.0336651 -0.0479754 0.04 -0.0324289 -0.0479754 0.04
-0.0312728 -0.0479754 0.04 -0.0301752 -0.0479754 0.04 -0.0291177 -0.0479754 0.04 -0.0281145
-0.0479754 0.04 -0.0271661 -0.0479754 0.04 -0.0262754 -0.0479754 0.04 -0.02543 -0.0479754
0.04 -0.0246256 -0.0479754 0.04 -0.0238573 -0.0479754 0.04 -0.023094 -0.0479754 0.04
-0.184464 -0.0439994 0.04 -0.188453 -0.0439994 0.04 -0.180475 -0.0439994 0.04 -0.176486
-0.0439994 0.04 -0.172497 -0.0439994 0.04 -0.168508 -0.0439994 0.04 -0.164519 -0.0439994
0.04 -0.16053 -0.0439994 0.04 -0.156541 -0.0439994 0.04 -0.152552 -0.0439994 0.04
-0.148563 -0.0439994 0.04 -0.144574 -0.0439994 0.04 -0.140586 -0.0439994 0.04 -0.136596
-0.0439994 0.04 -0.132607 -0.0439994 0.04 -0.128619 -0.0439994 0.04 -0.12463 -0.0439994
0.04 -0.120641 -0.0439994 0.04 -0.116652 -0.0439994 0.04 -0.112663 -0.0439994 0.04
-0.108674 -0.0439994 0.04 -0.104685 -0.0439994 0.04 -0.100696 -0.0439994 0.04 -0.0967069
-0.0439994 0.04 -0.0927179 -0.0439994 0.04 -0.0887391 -0.0439994 0.04 -0.0847775 -0.0439994
0.04 -0.0809835 -0.0439994 0.04 -0.0773956 -0.0439994 0.04 -0.0739968 -0.0439994 0.04
-0.0707629 -0.0439994 0.04 -0.0676784 -0.0439994 0.04 -0.0647301 -0.0439994 0.04 -0.0619431
-0.0439994 0.04 -0.0593321 -0.0439994 0.04 -0.0568459 -0.0439994 0.04 -0.0544545 -0.0439994
0.04 -0.0521732 -0.0439994 0.04 -0.0500374 -0.0439994 0.04 -0.0480123 -0.0439994 0.04
-0.046084 -0.0439994 0.04 -0.0442254 -0.0439994 0.04 -0.0424486 -0.0439994 0.04 -0.0407648
-0.0439994 0.04 -0.0391821 -0.0439994 0.04 -0.0376993 -0.0439994 0.04 -0.0362943 -0.0439994
0.04 -0.0349524 -0.0439994 0.04 -0.0336651 -0.0439994 0.04 -0.0324289 -0.0439994 0.04
-0.0312728 -0.0439994 0.04 -0.0301752 -0.0439994 0.04 -0.0291177 -0.0439994 0.04 -0.0281145
-0.0439994 0.04 -0.0271661 -0.0439994 0.04 -0.0262754 -0.0439994 0.04 -0.02543 -0.0439994
0.04 -0.0246256 -0.0439994 0.04 -0.0238573 -0.0439994 0.04 -0.023094 -0.0439994 0.04
-0.184464 -0.0400235 0.04 -0.188453 -0.0400235 0.04 -0.180475 -0.0400235 0.04 -0.176486
-0.0400235 0.04 -0.172497 -0.0400235 0.04 -0.168508 -0.0400235 0.04 -0.164519 -0.0400235
0.04 -0.16053 -0.0400235 0.04 -0.156541 -0.0400235 0.04 -0.152552 -0.0400235 0.04
-0.148563 -0.0400235 0.04 -0.144574 -0.0400235 0.04 -0.140586 -0.0400235 0.04 -0.136596
-0.0400235 0.04 -0.132607 -0.0400235 0.04 -0.128619 -0.0400235 0.04 -0.12463 -0.0400235
0.04 -0.120641 -0.0400235 0.04 -0.116652 -0.0400235 0.04 -0.112663 -0.0400235 0.04
-0.108674 -0.0400235 0.04 -0.104685 -0.0400235 0.04 -0.100696 -0.0400235 0.04 -0.0967069
-0.0400235 0.04 -0.0927179 -0.0400235 0.04 -0.088739 -0.0400235 0.04 -0.0847775 -0.0400235
0.04 -0.0809835 -0.0400235 0.04 -0.0773956 -0.0400235 0.04 -0.0739968 -0.0400235 0.04
-0.0707629 -0.0400235 0.04 -0.0676784 -0.0400235 0.04 -0.0647301 -0.0400235 0.04 -0.0619431
-0.0400235 0.04 -0.0593321 -0.0400235 0.04 -0.0568459 -0.0400235 0.04 -0.0544545 -0.0400235
0.04 -0.0521732 -0.0400235 0.04 -0.0500374 -0.0400235 0.04 -0.0480123 -0.0400235 0.04
-0.046084 -0.0400235 0.04 -0.0442254 -0.0400235 0.04 -0.0424486 -0.0400235 0.04 -0.0407648
-0.0400235 0.04 -0.0391821 -0.0400235 0.04 -0.0376993 -0.0400235 0.04 -0.0362943 -0.0400235
0.04 -0.0349524 -0.0400235 0.04 -0.0336651 -0.0400235 0.04 -0.0324289 -0.0400235 0.04
-0.0312728 -0.0400235 0.04 -0.0301752 -0.0400235 0.04 -0.0291177 -0.0400235 0.04 -0.0281145
-0.0400235 0.04 -0.0271661 -0.0400235 0.04 -0.0262754 -0.0400235 0.04 -0.02543 -0.0400235
0.04 -0.0246256 -0.0400235 0.04 -0.0238573 -0.0400235 0.04 -0.023094 -0.0400235 0.04
-0.184464 -0.0360475 0.04 -0.188453 -0.0360475 0.04 -0.180475 -0.0360475 0.04 -0.176486
-0.0360475 0.04 -0.172497 -0.0360475 0.04 -0.168508 -0.0360475 0.04 -0.164519 -0.0360475
0.04 -0.16053 -0.0360475 0.04 -0.156541 -0.0360475 0.04 -0.152552 -0.0360475 0.04
-0.148563 -0.0360475 0.04 -0.144574 -0.0360475 0.04 -0.140586 -0.0360475 0.04 -0.136596
-0.0360475 0.04 -0.132607 -0.0360475 0.04 -0.128619 -0.0360475 0.04 -0.12463 -0.0360475
0.04 -0.120641 -0.0360475 0.04 -0.116652 -0.0360475 0.04 -0.112663 -0.0360475 0.04
-0.108674 -0.0360475 0.04 -0.104685 -0.0360475 0.04 -0.100696 -0.0360475 0.04 -0.0967069
[...]
POINT_DATA 17673
FIELD attributes 1
Mode8 3 17673 float
0 0 0 3.78879e-05 0 4.55822e-05 0 16.6 0 0 8.25622
0 0 0 0 7.55536e-05 0 0.000135162 0 0 0
0.000113397 0.00770452 0.000129159 0 0 0 0.000152298 -0.0326625 3.3904e-05 0
0 0 0.000193101 -0.040367 -0.000145921 0 0 0 0.000236782 0.0141294
-0.000407189 0 0 0 0.000284302 0.0141294 -0.00079981 0 0 0
0.00033706 0.0163268 -0.00127291 0 0 0 0.000396628 0.0423886 -0.00182039 0
0 0 0.00046543 0.0570312 -0.00248223 0 0 0 0.000545142 0.0306646
-0.00331859 0 0 0 0.000637805 0.0852011 -0.00435144 0 0 0
0.000747527 0.0786127 -0.00545281 0 0 0 0.000875613 0.00381693 -0.00665063 0
0 0 0.00102719 0.0197889 -0.00801199 0 0 0 0.00120695 0.0521546
-0.00944298 0 0 0 0.00141892 0.0184667 -0.0108652 0 0 0
0.00167192 -0.0147606 -0.0121454 0 0 0 0.00197167 -0.0170723 -0.0130498 0
0 0 0.0023274 -0.029056 -0.013823 0 0 0 0.00274868 0.101581
-0.0149648 0 0 0 0.00324557 0.210118 -0.016656 0 0 0
0.00383078 0.16025 -0.0189658 0 0 0 0.00452047 0.10739 -0.0217645 0
0 0 0.00532816 0.091574 -0.0249048 0 0 0 0.00624374 0.0869448
-0.0282224 0 0 0 0.00721908 0.133268 -0.031404 0 0 0
0.00822384 0.158873 -0.0342039 0 0 0 0.00924667 0.121308 -0.036439 0
0 0 0.0102794 0.151322 -0.0378545 0 0 0 0.0112986 0.238398
-0.0384293 0 0 0 0.0123014 0.279344 -0.0387246 0 0 0
0.013219 0.287901 -0.0392498 0 0 0 0.0140065 0.312428 -0.0402811 0
0 0 0.0146891 0.335289 -0.0415669 0 0 0 0.0152452 0.403939
-0.0429397 0 0 0 0.0156503 0.380196 -0.044875 0 0 0
0.0158635 0.340696 -0.0467201 0 0 0 0.0158309 0.423323 -0.0481931 0
0 0 0.0155708 0.428282 -0.0501424 0 0 0 0.0151048 0.424726
-0.0522819 0 0 0 0.0143344 0.456723 -0.0544418 0 0 0
0.0132446 0.492272 -0.056281 0 0 0 0.0118455 0.544364 -0.0583155 0
0 0 0.0100787 0.596387 -0.0605312 0 0 0 0.00791978 0.617504
-0.0621093 0 0 0 0.00543153 0.587907 -0.0639115 0 0 0
0.00266347 0.592561 -0.0664962 0 0 0 -0.000482989 0.65102 -0.069195 0
0 0 -0.00404628 0.642971 -0.0709004 0 0 0 -0.00789278 0.634558
-0.0729865 0 0 0 -0.0120763 0.675131 -0.0759364 0 0 0
-0.0167231 0.716802 -0.0783371 0 0 0 -0.0217063 0.774557 -0.0810683 0
0 0 -0.0270879 0.724205 -0.0844414 0 0 0 -0.032944 0.672333
-0.0874325 0 0 0 -0.0390046 0.747016 -0.0909562 0 0 0
-0.0451971 0.776218 -0.0949021 -0.0518379 0.805888 -0.0986897 0 0 0 3.4795e-05
0 0.000138052 0 16.6 0 6.87284e-05 0 0.000277017 0.000101967 0.00767331
0.00038189 0.000135065 0.0076733 0.000360705 0.000168638 0 0.000243067 0.000204106 -0.001586 3.26734e-06
0.000242364 -0.0370785 -0.000384952 0.000284374 -0.0249872 -0.00081413 0.000331729 0.0237751 -0.00133114 0.000386928
0.0383343 -0.00203385 0.000451667 0.0444659 -0.00292123 0.000526659 0.05368 -0.00403536 0.000614743 0.0694521
-0.00528602 0.000718994 0.0437681 -0.0066198 0.000844389 0.00159787 -0.00817501 0.00099439 -0.0220208 -0.00986905
0.00117341 -0.0589457 -0.0116829 0.0013896 -0.0766685 -0.0137806 0.0016484 -0.0889502 -0.0160531 0.00195962
-0.056398 -0.018546 0.00233265 0.105177 -0.0214163 0.00277727 0.167732 -0.0245951 0.0033042 0.0908907
-0.0280244 0.00393388 0.0602693 -0.0316669 0.00467036 -0.00174089 -0.0356702 0.00550424 -0.00138502 -0.0401214
0.00640634 0.0914187 -0.0446699 0.00732838 0.0890798 -0.0491474 0.00825322 0.0899276 -0.0535749 0.00918092
0.0952544 -0.0581443 0.0100928 0.13227 -0.062702 0.010955 0.16308 -0.0671702 0.0117035 0.185825
-0.0711464 0.0123174 0.20246 -0.0752361 0.0128232 0.235262 -0.0799053 0.0131928 0.310457 -0.0847334
0.0133667 0.277739 -0.0895406 0.0133192 0.294299 -0.0938525 0.0130392 0.356473 -0.0981659 0.0125488
0.309966 -0.102687 0.0118418 0.293836 -0.107118 0.0108477 0.376626 -0.111643 0.00954086 0.44507
-0.116076 0.00788134 0.456616 -0.120452 0.00584883 0.45792 -0.124937 0.00347142 0.481591 -0.129384
0.000759965 0.47598 -0.133427 -0.00225686 0.491684 -0.138063 -0.00564037 0.561747 -0.143001 -0.00934582
0.558906 -0.147116 -0.0133627 0.539321 -0.150894 -0.0177984 0.584828 -0.155103 -0.0227161 0.630113
-0.159665 -0.0279496 0.683454 -0.163899 -0.0335144 0.621132 -0.167349 -0.0396064 0.560699 -0.171077
-0.0459261 0.635158 -0.176269 -0.0524289 0.69982 -0.179337 -0.0593561 0.710144 -0.180429 3.38561e-05
0 0.000264665 0 16.6 0 6.48996e-05 0 0.000459054 9.38215e-05 0
0.000579774 0.000121219 0 0.000526413 0.000147841 0 0.000377787 0.000175164 -0.001586 8.21954e-05
0.000203947 -0.0229805 -0.000443253 0.000234775 -0.0258922 -0.00101093 0.000269337 -0.0232 -0.0016899 0.000309614
-0.0486139 -0.00263754 0.00035684 -0.00196875 -0.00382271 0.00041281 0.0520873 -0.00520936 0.000478358 0.0739086
-0.00681891 0.000556579 0.08714 -0.00856818 0.000652838 0.0511256 -0.0105916 0.000769747 0.00194092 -0.0129435
0.00091222 -0.0387813 -0.0155381 0.00108733 -0.04004 -0.0185389 0.00129761 -0.0258246 -0.0219075 0.00155159
0.0132609 -0.0256727 0.00186141 0.0541349 -0.0299095 0.00223672 0.0596395 -0.0342267 0.002688 0.0812112
-0.0386551 0.00322691 0.0945955 -0.0433828 0.00385154 0.034694 -0.0484654 0.00455003 0.0270513 -0.0542814
0.00528687 0.106788 -0.0605769 0.00600964 0.123742 -0.0671018 0.00670415 0.141815 -0.0740219 0.00736192
0.188879 -0.0814529 0.00797646 0.229123 -0.0894116 0.0085395 0.198975 -0.0969419 0.0090087 0.216764
-0.103555 0.00936613 0.250108 -0.110478 0.00964463 0.285676 -0.118144 0.00984353 0.352278 -0.12535
0.00988626 0.321802 -0.132164 0.00973898 0.33594 -0.138943 0.00943403 0.351963 -0.145545 0.00896632
0.330242 -0.15228 0.00830098 0.382016 -0.158765 0.00740623 0.474005 -0.165429 0.00623806 0.527142
-0.172014 0.00472041 0.4598 -0.178169 0.002844 0.423016 -0.185328 0.000699479 0.480809 -0.191007
-0.00174944 0.5252 -0.195536 -0.00452327 0.59682 -0.201986 -0.00768073 0.600055 -0.208935 -0.011117
0.519188 -0.215316 -0.0148728 0.513455 -0.220366 -0.0190172 0.583114 -0.226284 -0.0235541 0.642922
-0.232412 -0.0284587 0.706464 -0.23948 -0.0336868 0.654879 -0.243545 -0.03942 0.602441 -0.242548
-0.0454792 0.678757 -0.251088 -0.0517038 0.684894 -0.258469 -0.0583778 0.646227 -0.256458 3.18807e-05
0 0.000364075 0 16.6 0 6.05157e-05 0 0.000609283 8.61165e-05 0
0.000707139 0.000109254 0 0.000612017 0.000130907 0 0.000317474 0.000151973 0 -0.000191406
0.00017326 0.0140981 -0.00088112 0.00019523 0.0217117 -0.00168509 0.000219116 -0.0319403 -0.0027072 0.000246708
-0.106387 -0.00402926 0.000279555 -0.0832088 -0.00560605 0.0003182 -0.0393642 -0.00746106 0.000364221 0.0100828
-0.00956423 0.000420804 0.0783465 -0.0119254 0.000490768 0.102446 -0.014659 0.000576876 0.0791971 -0.0178166
0.00068353 0.0261197 -0.0212963 0.00081608 0.0193743 -0.0250924 0.000978212 0.0638439 -0.029367 0.00117707
0.0980467 -0.0341278 0.00142417 0.0472333 -0.0395094 0.00172791 0.0144339 -0.0450296 0.00209185 0.0703899
-0.0506386 0.00251357 0.0713279 -0.0567964 0.00298349 0.0787761 -0.0634644 0.00349897 0.0874243 -0.0710601
0.00401192 0.111987 -0.0797357 0.00449634 0.151996 -0.0890109 0.0049687 0.174342 -0.0983269 0.00541435
0.238737 -0.108286 0.00584466 0.23991 -0.118784 0.00627745 0.230195 -0.128403 0.0066954 0.256113
-0.13723 0.00709044 0.290939 -0.14601 0.00747653 0.316145 -0.155022 0.00784414 0.329962 -0.163502
0.00813332 0.337933 -0.171787 0.00828962 0.37398 -0.18048 0.00830862 0.363322 -0.188871 0.00820394
0.348702 -0.197033 0.00795797 0.432261 -0.20526 0.0075175 0.490365 -0.213898 0.00684187 0.512078
-0.220925 0.0058484 0.50521 -0.227554 0.00451547 0.458009 -0.234593 0.00294512 0.471214 -0.245511
0.00110874 0.536136 -0.255083 -0.00103791 0.589068 -0.258916 -0.00355197 0.534324 -0.266262 -0.00644308
0.478451 -0.275724 -0.00962081 0.529789 -0.278752 -0.013085 0.586369 -0.28569 -0.0169658 0.654419
-0.293642 -0.0212581 0.674094 -0.299451 -0.025966 0.631207 -0.305403 -0.0311107 0.63058 -0.3084
-0.0366165 0.698946 -0.315999 -0.0422983 0.644826 -0.323618 -0.0485282 0.58909 -0.327097 2.94272e-05
0 0.000423461 0 16.6 0 5.55081e-05 0 0.000685991 7.83046e-05 0
0.00080397 9.8369e-05 0 0.000672399 0.000116453 0 0.000194448 0.000132996 0 -0.000491108
0.000148816 0 -0.00134518 0.000164621 0.025242 -0.00247984 0.000181042 0.0174526 -0.0038765 0.000199399
-0.0513759 -0.00554135 0.000221847 -0.105384 -0.0075335 0.000247567 -0.133137 -0.00990235 0.000278871 -0.0889793
-0.0125389 0.000319616 -0.0401369 -0.0155241 0.000370253 0.0366581 -0.0190157 0.000433142 0.130869 -0.0229004
0.000512408 0.131662 -0.027239 0.000611938 0.126851 -0.0320425 0.000736875 0.129137 -0.0373875 0.000893203
0.144835 -0.0433762 0.00108709 0.114558 -0.0498536 0.00132299 0.0362435 -0.0564413 0.00159513 0.0148313
-0.0632009 0.00189933 -0.00303967 -0.0707581 0.00222803 0.0428659 -0.0793823 0.00258677 0.148447 -0.0894387
0.00295676 0.188783 -0.100561 0.0033257 0.178666 -0.112273 0.00372363 0.19163 -0.123993 0.00417179
0.204051 -0.136123 0.00468904 0.19863 -0.148096 0.00528942 0.266787 -0.158792 0.00594628 0.272189
-0.169452 0.00661546 0.316869 -0.180084 0.00728726 0.36907 -0.190292 0.0079515 0.288222 -0.200584
0.00854431 0.313296 -0.209723 0.00900587 0.364494 -0.219238 0.00934004 0.371626 -0.230564 0.00958095
0.394935 -0.240092 0.00973048 0.440682 -0.249099 0.00971624 0.478417 -0.258292 0.00948942 0.460877
-0.265527 0.00898198 0.497496 -0.274758 0.00817347 0.457061 -0.285582 0.00711947 0.422904 -0.296072
0.00582708 0.519843 -0.306119 0.0042712 0.57849 -0.310149 0.00241026 0.526865 -0.316556 0.000104665
0.495914 -0.327183 -0.00248974 0.563766 -0.3303 -0.00529697 0.628855 -0.338518 -0.00858664 0.635676
-0.350288 -0.0123029 0.584543 -0.355151 -0.0163992 0.596065 -0.360295 -0.0208609 0.605661 -0.370518
-0.0257695 0.624026 -0.373702 -0.0309271 0.632024 -0.375479 -0.0365664 0.635454 -0.383257 2.66777e-05
0 0.000503165 0 16.6 0 5.01061e-05 0 0.00079194 7.02887e-05 0
0.000861389 8.78325e-05 0 0.000643807 0.000102986 0 7.91668e-05 0.000116029 0 -0.000744346
0.000127813 0 -0.00187891 0.00013929 0.0026254 -0.00336051 0.000150437 0.0267327 -0.00508068 0.000162745
-0.000993191 -0.00714316 0.000177731 -0.0734284 -0.00970463 0.000194569 -0.109093 -0.0126405 0.000215516 -0.130367
-0.0158359 0.000243714 -0.143085 -0.0195185 0.000281005 -0.088786 -0.0237909 0.000328772 0.0410329 -0.0284008
0.000390783 0.179212 -0.0335253 0.000469754 0.210795 -0.0393919 0.00056903 0.139577 -0.0457981 0.000694468
0.114297 -0.052847 0.000847861 0.129519 -0.0602967 0.00103 0.0926785 -0.0679564 0.00123436 0.0367215
-0.0761562 0.00146244 0.0591029 -0.0854104 0.00172007 0.103945 -0.096002 0.00201806 0.149289 -0.10843
0.00235213 0.182007 -0.121978 0.00271962 0.15698 -0.135722 0.00316617 0.174972 -0.149093 0.00374071
0.208832 -0.162155 0.00446198 0.235357 -0.175009 0.0053067 0.258687 -0.186828 0.00619331 0.229366
-0.199239 0.00706946 0.240779 -0.211606 0.00795019 0.319643 -0.223493 0.00885914 0.32175 -0.235433
0.00971542 0.306213 -0.245725 0.0104588 0.332301 -0.256442 0.0111252 0.365018 -0.269231 0.0117384
0.414575 -0.280356 0.0122825 0.421613 -0.288605 0.0126975 0.420116 -0.301311 0.0129402 0.440962
-0.312139 0.0129443 0.441194 -0.318601 0.0126686 0.416683 -0.333952 0.0121442 0.470303 -0.34518
0.0114038 0.511944 -0.34984 0.0104396 0.531602 -0.355356 0.00921591 0.510458 -0.362183 0.00758869
0.485612 -0.371368 0.00565452 0.565361 -0.379489 0.00345823 0.585749 -0.386683 0.000826261 0.53836
-0.399883 -0.00223413 0.546776 -0.412326 -0.00561793 0.606865 -0.413818 -0.0093505 0.574398 -0.422127
-0.0136763 0.561651 -0.430508 -0.0182102 0.644767 -0.432627 -0.0232006 0.647026 -0.435046 2.37624e-05
0 0.000585859 0 16.6 0 4.45819e-05 0 0.000913782 6.22773e-05 0
0.000931483 7.73032e-05 0 0.000659651 8.98194e-05 0 4.86003e-05 0.000100214 0 -0.000956303
0.000109082 0 -0.00237658 0.000117111 0 -0.00412122 0.00012483 0.0284929 -0.00623465 0.000133228
0.0269197 -0.0087713 0.00014227 -0.0321837 -0.0117985 0.000153156 -0.0828404 -0.0153159 0.000168684 -0.114786
-0.0191589 0.000189362 -0.131612 -0.0234648 0.00021695 -0.138044 -0.0284373 0.000254276 -0.0758736 -0.0338882
0.000306461 0.0772992 -0.0399341 0.000372676 0.129703 -0.0466501 0.000454851 0.102856 -0.0539632 0.000560907
0.101601 -0.0620324 0.000690586 0.100447 -0.0704689 0.000842931 0.1214 -0.0793429 0.00101587 0.121386
-0.0890331 0.00121215 0.140903 -0.0998039 0.00144926 0.176579 -0.112044 0.00173895 0.162226 -0.126466
0.0020729 0.139621 -0.14215 0.00250023 0.122085 -0.157871 0.00307972 0.182207 -0.172285 0.00383103
0.252774 -0.186386 0.00474457 0.227645 -0.200855 0.00576456 0.212718 -0.214179 0.00680773 0.225838
-0.227901 0.00785108 0.207133 -0.241045 0.00894055 0.227821 -0.255126 0.0100656 0.305701 -0.26866
0.0111659 0.331889 -0.280185 0.0122091 0.348481 -0.292519 0.0132007 0.350039 -0.305206 0.0141719
0.349218 -0.316954 0.0151012 0.398909 -0.32467 0.0159324 0.381383 -0.340377 0.0166246 0.361294
-0.358554 0.0171124 0.39184 -0.36359 0.0173523 0.401593 -0.373162 0.0173599 0.492957 -0.390143
0.01719 0.500847 -0.393834 0.0168221 0.479144 -0.395832 0.0162007 0.48494 -0.406192 0.0152698
0.476833 -0.418888 0.0140495 0.509275 -0.429072 0.0124903 0.491423 -0.432561 0.0105451 0.53194
-0.442469 0.00822785 0.559909 -0.456643 0.00559829 0.568905 -0.460575 0.00256965 0.54593 -0.466578
-0.00106144 0.542247 -0.47987 -0.00479071 0.631469 -0.480921 -0.00912074 0.582876 -0.477392 2.09707e-05
0 0.000678883 0 16.6 0 3.92172e-05 0 0.00106407 5.45326e-05 0
0.00110128 6.72149e-05 0 0.000772064 7.74994e-05 0 4.32267e-05 8.57188e-05 0 -0.00113174
9.22908e-05 0 -0.00277698 9.76818e-05 0 -0.00482672 0.000102823 0.00703435 -0.00735939 0.000107867
0.0348134 -0.0103759 0.00011301 0.0155117 -0.013854 0.000120042 -0.05404 -0.0178608 0.000131114 -0.0973273
-0.0224038 0.000147534 -0.119187 -0.0273712 0.000170022 -0.125085 -0.0329936 0.00020066 -0.076947 -0.0392442
0.000245691 -0.0050743 -0.0461411 0.000303739 0.0119086 -0.053519 0.000377106 0.0350004 -0.0618099 0.000474509
0.0337548 -0.0709517 0.000595753 -0.00114098 -0.0803404 0.000737404 0.00067349 -0.0903777 0.000902576 0.0436286
-0.101453 0.00109523 0.110715 -0.113717 0.00133542 0.12732 -0.127796 0.00162602 0.086455 -0.144008
0.00198253 0.0750308 -0.160924 0.00249653 0.126899 -0.178127 0.00321596 0.155339 -0.194094 0.00412474
0.141081 -0.209644 0.00517048 0.143422 -0.224919 0.00630884 0.171434 -0.239297 0.00749841 0.188499
-0.254218 0.00870424 0.204048 -0.269089 0.00998116 0.206753 -0.284349 0.0113029 0.249705 -0.299529
0.0126204 0.328182 -0.313029 0.0139045 0.32179 -0.325987 0.0151644 0.289477 -0.343003 0.0164376
0.283399 -0.355913 0.0176978 0.312296 -0.36268 0.0189133 0.317544 -0.37744 0.0200117 0.341201
-0.39711 0.0209112 0.422719 -0.409361 0.0216165 0.436269 -0.41774 0.02215 0.437716 -0.428556
0.0225344 0.474081 -0.437611 0.0227638 0.500844 -0.443236 0.022729 0.468933 -0.452518 0.0224443
0.481944 -0.464732 0.0218714 0.48656 -0.471107 0.0209741 0.493909 -0.479331 0.0197822 0.564092
-0.487245 0.0182033 0.5631 -0.496819 0.0162422 0.534293 -0.505245 0.0138768 0.528763 -0.509825
0.0110194 0.528202 -0.517421 0.00811861 0.555452 -0.518675 0.004474 0.52575 -0.523609 1.83079e-05
0 0.000816753 0 16.6 0 3.40996e-05 0 0.00129271 4.7291e-05 0
0.00136537 5.78918e-05 0 0.00100341 6.61323e-05 0 0.000155609 7.24725e-05 0 -0.00117425
7.69435e-05 0 -0.00303193 7.99522e-05 0 -0.00542614 8.22661e-05 0 -0.00831453 8.4675e-05
0.0273317 -0.0117548 8.74563e-05 0.0392572 -0.0157461 9.05879e-05 -0.0151894 -0.0202923 9.76955e-05 -0.0710551
-0.0254111 0.000110604 -0.0994874 -0.0310927 0.000129284 -0.115957 -0.03737 0.000156087 -0.0732356 -0.0442631
0.000194372 -0.0144533 -0.0519579 0.000245564 -0.0126821 -0.0602552 0.000314575 -0.00821559 -0.0694695 0.00040768
-0.0142517 -0.0793478 0.000526053 -0.0484615 -0.0898523 0.000668023 -0.0918441 -0.100857 0.000835428 -0.0680869
-0.112831 0.00103162 0.0177162 -0.126552 0.00127164 0.0403068 -0.14243 0.00156494 0.0124755 -0.160421
0.00195314 0.0470113 -0.178461 0.0025418 0.132406 -0.196694 0.0033664 0.146765 -0.213973 0.00437702
0.153011 -0.230216 0.00552721 0.149696 -0.246675 0.00677602 0.12663 -0.262915 0.00807512 0.14357
-0.279214 0.00940396 0.183279 -0.295197 0.0108023 0.232442 -0.311383 0.0122647 0.271021 -0.328758
0.013767 0.267537 -0.3436 0.0152398 0.2486 -0.357764 0.0166996 0.266872 -0.377986 0.018201
0.31401 -0.394559 0.0197163 0.31598 -0.404663 0.0212258 0.306411 -0.419362 0.0226584 0.401831
-0.436813 0.0239281 0.481407 -0.453166 0.0250275 0.423946 -0.463862 0.0260166 0.395695 -0.472627
0.0268831 0.477392 -0.483275 0.0276284 0.527333 -0.49229 0.0281734 0.488526 -0.502593 0.0284327
0.469533 -0.508463 0.0284507 0.452382 -0.512381 0.0282536 0.490211 -0.522511 0.0277805 0.538525
-0.5293 0.0269178 0.512864 -0.539242 0.0256285 0.524851 -0.547711 0.0239539 0.53839 -0.552817
0.0218397 0.546004 -0.554954 0.0197614 0.551107 -0.556995 0.0170016 0.531039 -0.570205 1.57089e-05
0 0.000991753 0 16.6 0 2.91913e-05 0 0.00159697 4.03893e-05 0
0.00172765 4.91349e-05 0 0.00134787 5.55849e-05 0 0.000416347 6.00937e-05 0 -0.00107118
6.2565e-05 0 -0.00316648 6.33052e-05 0 -0.00586041 6.28956e-05 0 -0.00910542 6.21962e-05
0.00710145 -0.0129608 6.20425e-05 0.0374388 -0.0174282 6.23801e-05 0.0179099 -0.0225663 6.62792e-05 -0.0435966
-0.0282529 7.45203e-05 -0.0750106 -0.0344557 8.74308e-05 -0.0991895 -0.0413421 0.000109528 -0.0701378 -0.0489851
0.000140948 -0.010965 -0.0575662 0.0001863 -0.0170567 -0.0667026 0.000250762 -0.0316552 -0.0765016 0.000336927
-0.0162788 -0.0870177 0.000449626 -0.00984361 -0.0984445 0.00059071 -0.0202042 -0.11035 0.000758771 0.0120528
-0.123059 0.000950011 0.0690529 -0.137912 0.00117538 0.0653519 -0.154945 0.00145937 0.0572721 -0.173815
0.00185997 0.132299 -0.193343 0.00249172 0.14007 -0.212767 0.00337592 0.0889971 -0.231272 0.00444744
0.163792 -0.248676 0.00565641 0.1826 -0.266763 0.00697435 0.173548 -0.284551 0.00835316 0.182526
-0.301413 0.00974395 0.190127 -0.317988 0.0111909 0.26882 -0.336292 0.0127276 0.278973 -0.356355
0.0143203 0.236079 -0.372482 0.0159076 0.223827 -0.387773 0.0174956 0.249388 -0.407509 0.0191197
0.322484 -0.424452 0.0207818 0.343195 -0.438028 0.0224655 0.360983 -0.456184 0.0241071 0.390516
-0.475315 0.0256449 0.394706 -0.494606 0.0270508 0.383929 -0.507496 0.0283569 0.434299 -0.522227
0.0295676 0.451307 -0.534231 0.0306988 0.441094 -0.53916 0.0317079 0.465051 -0.548938 0.0324512
0.441338 -0.558095 0.0330001 0.434355 -0.564799 0.0333535 0.462143 -0.568261 0.033435 0.484366
-0.572861 0.0332003 0.440838 -0.583047 0.0326203 0.516996 -0.587763 0.0316717 0.566252 -0.591679
0.0303264 0.529654 -0.595628 0.0289696 0.517193 -0.596162 0.0270048 0.520518 -0.601361 1.34128e-05
0 0.00120577 0 16.6 0 2.48648e-05 0 0.00196227 3.40968e-05 0
0.00216587 4.10441e-05 0 0.00177802 4.57681e-05 0 0.000780812 4.82862e-05 0 -0.000850274
4.87402e-05 0 -0.00317507 4.72909e-05 0 -0.00615902 4.45061e-05 0 -0.00974845 4.04331e-05
0 -0.0139737 3.67368e-05 0.0240288 -0.0187894 3.4e-05 0.0424481 -0.0242614 3.2904e-05 0.00545091
-0.0304841 3.60918e-05 -0.0416184 -0.0373732 4.32475e-05 -0.0691193 -0.0449222 5.74895e-05 -0.0636938 -0.053178
8.28924e-05 -0.00667111 -0.062174 0.000120448 0.00774169 -0.0719292 0.000174199 -0.0332908 -0.0824708 0.000250781
-0.0459633 -0.0935922 0.000353571 -0.0264924 -0.105575 0.000483326 -0.0122938 -0.118268 0.000640605 0.0259128
-0.131737 0.000817774 0.109612 -0.147295 0.00101591 0.134683 -0.165091 0.00127173 0.110271 -0.184248
0.00166308 0.119537 -0.205009 0.00229593 0.0669529 -0.22593 0.00319005 0.0210377 -0.245742 0.00428057
0.114581 -0.264382 0.00549952 0.154349 -0.283332 0.00682293 0.198577 -0.302092 0.00820374 0.18759
-0.319738 0.00959882 0.150714 -0.338227 0.0110417 0.25618 -0.357824 0.012566 0.257606 -0.378708
0.0141403 0.194838 -0.397124 0.0157273 0.216821 -0.414544 0.0173403 0.218823 -0.43534 0.0189768
0.264079 -0.452836 0.0206672 0.302425 -0.469888 0.0224107 0.295371 -0.490316 0.024121 0.313485
-0.507958 0.0257602 0.304938 -0.528952 0.0273253 0.328515 -0.546403 0.0288067 0.404015 -0.560485
0.0302115 0.363001 -0.577113 0.0315895 0.344162 -0.58995 0.0328801 0.379438 -0.601932 0.0339599
0.389259 -0.612036 0.0349105 0.461713 -0.620497 0.0356768 0.488423 -0.626025 0.0361714 0.441742
-0.63021 0.0364236 0.397925 -0.637133 0.0363474 0.468962 -0.638325 0.0359498 0.523033 -0.639604