# vtk DataFile Version 2.0
sampleSurface
ASCII
DATASET POLYDATA
POINTS 17673 float
0.04 -0.184464 -0.06 0.04 -0.184464 -0.0559273 0.04 -0.188453 -0.0559273 0.04 -0.188453
-0.06 0.04 -0.180475 -0.06 0.04 -0.180475 -0.0559273 0.04 -0.176486 -0.06
0.04 -0.176486 -0.0559273 0.04 -0.172497 -0.06 0.04 -0.172497 -0.0559273 0.04
-0.168508 -0.06 0.04 -0.168508 -0.0559273 0.04 -0.164519 -0.06 0.04 -0.164519
-0.0559273 0.04 -0.16053 -0.06 0.04 -0.16053 -0.0559273 0.04 -0.156541 -0.06
0.04 -0.156541 -0.0559273 0.04 -0.152552 -0.06 0.04 -0.152552 -0.0559273 0.04
-0.148563 -0.06 0.04 -0.148563 -0.0559273 0.04 -0.144574 -0.06 0.04 -0.144574
-0.0559273 0.04 -0.140586 -0.06 0.04 -0.140586 -0.0559273 0.04 -0.136596 -0.06
0.04 -0.136596 -0.0559273 0.04 -0.132607 -0.06 0.04 -0.132607 -0.0559273 0.04
-0.128619 -0.06 0.04 -0.128619 -0.0559273 0.04 -0.12463 -0.06 0.04 -0.12463
-0.0559273 0.04 -0.120641 -0.06 0.04 -0.120641 -0.0559273 0.04 -0.116652 -0.06
0.04 -0.116652 -0.0559273 0.04 -0.112663 -0.06 0.04 -0.112663 -0.0559273 0.04
-0.108674 -0.06 0.04 -0.108674 -0.0559273 0.04 -0.104685 -0.06 0.04 -0.104685
-0.0559273 0.04 -0.100696 -0.06 0.04 -0.100696 -0.0559273 0.04 -0.0967069 -0.06
0.04 -0.0967069 -0.0559273 0.04 -0.0927179 -0.06 0.04 -0.0927179 -0.0559273 0.04
-0.088739 -0.06 0.04 -0.0887391 -0.0559273 0.04 -0.0847775 -0.06 0.04 -0.0847775
-0.0559273 0.04 -0.0809835 -0.06 0.04 -0.0809835 -0.0559273 0.04 -0.0773956 -0.06
0.04 -0.0773956 -0.0559273 0.04 -0.0739968 -0.06 0.04 -0.0739968 -0.0559273 0.04
-0.0707629 -0.06 0.04 -0.0707629 -0.0559273 0.04 -0.0676784 -0.06 0.04 -0.0676784
-0.0559273 0.04 -0.0647301 -0.06 0.04 -0.0647301 -0.0559273 0.04 -0.0619431 -0.06
0.04 -0.0619431 -0.0559273 0.04 -0.0593321 -0.06 0.04 -0.0593321 -0.0559273 0.04
-0.0568459 -0.06 0.04 -0.0568459 -0.0559273 0.04 -0.0544545 -0.06 0.04 -0.0544545
-0.0559273 0.04 -0.0521732 -0.06 0.04 -0.0521732 -0.0559273 0.04 -0.0500374 -0.06
0.04 -0.0500374 -0.0559273 0.04 -0.0480123 -0.06 0.04 -0.0480123 -0.0559273 0.04
-0.046084 -0.06 0.04 -0.046084 -0.0559273 0.04 -0.0442254 -0.06 0.04 -0.0442254
-0.0559273 0.04 -0.0424486 -0.06 0.04 -0.0424486 -0.0559273 0.04 -0.0407648 -0.06
0.04 -0.0407648 -0.0559273 0.04 -0.0391821 -0.06 0.04 -0.0391821 -0.0559273 0.04
-0.0376993 -0.06 0.04 -0.0376993 -0.0559273 0.04 -0.0362943 -0.06 0.04 -0.0362943
-0.0559273 0.04 -0.0349524 -0.06 0.04 -0.0349524 -0.0559273 0.04 -0.0336651 -0.06
0.04 -0.0336651 -0.0559273 0.04 -0.0324289 -0.06 0.04 -0.0324289 -0.0559273 0.04
-0.0312728 -0.06 0.04 -0.0312728 -0.0559273 0.04 -0.0301752 -0.06 0.04 -0.0301752
-0.0559273 0.04 -0.0291177 -0.06 0.04 -0.0291177 -0.0559273 0.04 -0.0281145 -0.06
0.04 -0.0281145 -0.0559273 0.04 -0.0271661 -0.06 0.04 -0.0271661 -0.0559273 0.04
-0.0262754 -0.06 0.04 -0.0262754 -0.0559273 0.04 -0.02543 -0.06 0.04 -0.02543
-0.0559273 0.04 -0.0246256 -0.06 0.04 -0.0246256 -0.0559273 0.04 -0.0238573 -0.06
0.04 -0.0238573 -0.0559273 0.04 -0.023094 -0.0559273 0.04 -0.023094 -0.06 0.04
-0.184464 -0.0519514 0.04 -0.188453 -0.0519514 0.04 -0.180475 -0.0519514 0.04 -0.176486
-0.0519514 0.04 -0.172497 -0.0519514 0.04 -0.168508 -0.0519514 0.04 -0.164519 -0.0519514
0.04 -0.16053 -0.0519514 0.04 -0.156541 -0.0519514 0.04 -0.152552 -0.0519514 0.04
-0.148563 -0.0519514 0.04 -0.144574 -0.0519514 0.04 -0.140586 -0.0519514 0.04 -0.136596
-0.0519514 0.04 -0.132607 -0.0519514 0.04 -0.128619 -0.0519514 0.04 -0.12463 -0.0519514
0.04 -0.120641 -0.0519514 0.04 -0.116652 -0.0519514 0.04 -0.112663 -0.0519514 0.04
-0.108674 -0.0519514 0.04 -0.104685 -0.0519514 0.04 -0.100696 -0.0519514 0.04 -0.0967069
-0.0519514 0.04 -0.0927179 -0.0519514 0.04 -0.088739 -0.0519514 0.04 -0.0847775 -0.0519514
0.04 -0.0809835 -0.0519514 0.04 -0.0773956 -0.0519514 0.04 -0.0739968 -0.0519514 0.04
-0.0707629 -0.0519514 0.04 -0.0676784 -0.0519514 0.04 -0.0647301 -0.0519514 0.04 -0.0619431
-0.0519514 0.04 -0.0593321 -0.0519514 0.04 -0.0568459 -0.0519514 0.04 -0.0544545 -0.0519514
0.04 -0.0521732 -0.0519514 0.04 -0.0500374 -0.0519514 0.04 -0.0480123 -0.0519514 0.04
-0.046084 -0.0519514 0.04 -0.0442254 -0.0519514 0.04 -0.0424486 -0.0519514 0.04 -0.0407648
-0.0519514 0.04 -0.0391821 -0.0519514 0.04 -0.0376993 -0.0519514 0.04 -0.0362943 -0.0519514
0.04 -0.0349524 -0.0519514 0.04 -0.0336651 -0.0519514 0.04 -0.0324289 -0.0519514 0.04
-0.0312728 -0.0519514 0.04 -0.0301752 -0.0519514 0.04 -0.0291177 -0.0519514 0.04 -0.0281145
-0.0519514 0.04 -0.0271661 -0.0519514 0.04 -0.0262754 -0.0519514 0.04 -0.02543 -0.0519514
0.04 -0.0246256 -0.0519514 0.04 -0.0238573 -0.0519514 0.04 -0.023094 -0.0519514 0.04
-0.184464 -0.0479754 0.04 -0.188453 -0.0479754 0.04 -0.180475 -0.0479754 0.04 -0.176486
-0.0479754 0.04 -0.172497 -0.0479754 0.04 -0.168508 -0.0479754 0.04 -0.164519 -0.0479754
0.04 -0.16053 -0.0479754 0.04 -0.156541 -0.0479754 0.04 -0.152552 -0.0479754 0.04
-0.148563 -0.0479754 0.04 -0.144574 -0.0479754 0.04 -0.140586 -0.0479754 0.04 -0.136596
-0.0479754 0.04 -0.132607 -0.0479754 0.04 -0.128619 -0.0479754 0.04 -0.12463 -0.0479754
0.04 -0.120641 -0.0479754 0.04 -0.116652 -0.0479754 0.04 -0.112663 -0.0479754 0.04
-0.108674 -0.0479754 0.04 -0.104685 -0.0479754 0.04 -0.100696 -0.0479754 0.04 -0.0967069
-0.0479754 0.04 -0.0927179 -0.0479754 0.04 -0.0887391 -0.0479754 0.04 -0.0847775 -0.0479754
0.04 -0.0809835 -0.0479754 0.04 -0.0773956 -0.0479754 0.04 -0.0739968 -0.0479754 0.04
-0.0707629 -0.0479754 0.04 -0.0676784 -0.0479754 0.04 -0.0647301 -0.0479754 0.04 -0.0619431
-0.0479754 0.04 -0.0593321 -0.0479754 0.04 -0.0568459 -0.0479754 0.04 -0.0544545 -0.0479754
0.04 -0.0521732 -0.0479754 0.04 -0.0500374 -0.0479754 0.04 -0.0480123 -0.0479754 0.04
-0.046084 -0.0479754 0.04 -0.0442254 -0.0479754 0.04 -0.0424486 -0.0479754 0.04 -0.0407648
-0.0479754 0.04 -0.0391821 -0.0479754 0.04 -0.0376993 -0.0479754 0.04 -0.0362943 -0.0479754
0.04 -0.0349524 -0.0479754 0.04 -0.0336651 -0.0479754 0.04 -0.0324289 -0.0479754 0.04
-0.0312728 -0.0479754 0.04 -0.0301752 -0.0479754 0.04 -0.0291177 -0.0479754 0.04 -0.0281145
-0.0479754 0.04 -0.0271661 -0.0479754 0.04 -0.0262754 -0.0479754 0.04 -0.02543 -0.0479754
0.04 -0.0246256 -0.0479754 0.04 -0.0238573 -0.0479754 0.04 -0.023094 -0.0479754 0.04
-0.184464 -0.0439994 0.04 -0.188453 -0.0439994 0.04 -0.180475 -0.0439994 0.04 -0.176486
-0.0439994 0.04 -0.172497 -0.0439994 0.04 -0.168508 -0.0439994 0.04 -0.164519 -0.0439994
0.04 -0.16053 -0.0439994 0.04 -0.156541 -0.0439994 0.04 -0.152552 -0.0439994 0.04
-0.148563 -0.0439994 0.04 -0.144574 -0.0439994 0.04 -0.140586 -0.0439994 0.04 -0.136596
-0.0439994 0.04 -0.132607 -0.0439994 0.04 -0.128619 -0.0439994 0.04 -0.12463 -0.0439994
0.04 -0.120641 -0.0439994 0.04 -0.116652 -0.0439994 0.04 -0.112663 -0.0439994 0.04
-0.108674 -0.0439994 0.04 -0.104685 -0.0439994 0.04 -0.100696 -0.0439994 0.04 -0.0967069
-0.0439994 0.04 -0.0927179 -0.0439994 0.04 -0.0887391 -0.0439994 0.04 -0.0847775 -0.0439994
0.04 -0.0809835 -0.0439994 0.04 -0.0773956 -0.0439994 0.04 -0.0739968 -0.0439994 0.04
-0.0707629 -0.0439994 0.04 -0.0676784 -0.0439994 0.04 -0.0647301 -0.0439994 0.04 -0.0619431
-0.0439994 0.04 -0.0593321 -0.0439994 0.04 -0.0568459 -0.0439994 0.04 -0.0544545 -0.0439994
0.04 -0.0521732 -0.0439994 0.04 -0.0500374 -0.0439994 0.04 -0.0480123 -0.0439994 0.04
-0.046084 -0.0439994 0.04 -0.0442254 -0.0439994 0.04 -0.0424486 -0.0439994 0.04 -0.0407648
-0.0439994 0.04 -0.0391821 -0.0439994 0.04 -0.0376993 -0.0439994 0.04 -0.0362943 -0.0439994
0.04 -0.0349524 -0.0439994 0.04 -0.0336651 -0.0439994 0.04 -0.0324289 -0.0439994 0.04
-0.0312728 -0.0439994 0.04 -0.0301752 -0.0439994 0.04 -0.0291177 -0.0439994 0.04 -0.0281145
-0.0439994 0.04 -0.0271661 -0.0439994 0.04 -0.0262754 -0.0439994 0.04 -0.02543 -0.0439994
0.04 -0.0246256 -0.0439994 0.04 -0.0238573 -0.0439994 0.04 -0.023094 -0.0439994 0.04
-0.184464 -0.0400235 0.04 -0.188453 -0.0400235 0.04 -0.180475 -0.0400235 0.04 -0.176486
-0.0400235 0.04 -0.172497 -0.0400235 0.04 -0.168508 -0.0400235 0.04 -0.164519 -0.0400235
0.04 -0.16053 -0.0400235 0.04 -0.156541 -0.0400235 0.04 -0.152552 -0.0400235 0.04
-0.148563 -0.0400235 0.04 -0.144574 -0.0400235 0.04 -0.140586 -0.0400235 0.04 -0.136596
-0.0400235 0.04 -0.132607 -0.0400235 0.04 -0.128619 -0.0400235 0.04 -0.12463 -0.0400235
0.04 -0.120641 -0.0400235 0.04 -0.116652 -0.0400235 0.04 -0.112663 -0.0400235 0.04
-0.108674 -0.0400235 0.04 -0.104685 -0.0400235 0.04 -0.100696 -0.0400235 0.04 -0.0967069
-0.0400235 0.04 -0.0927179 -0.0400235 0.04 -0.088739 -0.0400235 0.04 -0.0847775 -0.0400235
0.04 -0.0809835 -0.0400235 0.04 -0.0773956 -0.0400235 0.04 -0.0739968 -0.0400235 0.04
-0.0707629 -0.0400235 0.04 -0.0676784 -0.0400235 0.04 -0.0647301 -0.0400235 0.04 -0.0619431
-0.0400235 0.04 -0.0593321 -0.0400235 0.04 -0.0568459 -0.0400235 0.04 -0.0544545 -0.0400235
0.04 -0.0521732 -0.0400235 0.04 -0.0500374 -0.0400235 0.04 -0.0480123 -0.0400235 0.04
-0.046084 -0.0400235 0.04 -0.0442254 -0.0400235 0.04 -0.0424486 -0.0400235 0.04 -0.0407648
-0.0400235 0.04 -0.0391821 -0.0400235 0.04 -0.0376993 -0.0400235 0.04 -0.0362943 -0.0400235
0.04 -0.0349524 -0.0400235 0.04 -0.0336651 -0.0400235 0.04 -0.0324289 -0.0400235 0.04
-0.0312728 -0.0400235 0.04 -0.0301752 -0.0400235 0.04 -0.0291177 -0.0400235 0.04 -0.0281145
-0.0400235 0.04 -0.0271661 -0.0400235 0.04 -0.0262754 -0.0400235 0.04 -0.02543 -0.0400235
0.04 -0.0246256 -0.0400235 0.04 -0.0238573 -0.0400235 0.04 -0.023094 -0.0400235 0.04
-0.184464 -0.0360475 0.04 -0.188453 -0.0360475 0.04 -0.180475 -0.0360475 0.04 -0.176486
-0.0360475 0.04 -0.172497 -0.0360475 0.04 -0.168508 -0.0360475 0.04 -0.164519 -0.0360475
0.04 -0.16053 -0.0360475 0.04 -0.156541 -0.0360475 0.04 -0.152552 -0.0360475 0.04
-0.148563 -0.0360475 0.04 -0.144574 -0.0360475 0.04 -0.140586 -0.0360475 0.04 -0.136596
-0.0360475 0.04 -0.132607 -0.0360475 0.04 -0.128619 -0.0360475 0.04 -0.12463 -0.0360475
0.04 -0.120641 -0.0360475 0.04 -0.116652 -0.0360475 0.04 -0.112663 -0.0360475 0.04
-0.108674 -0.0360475 0.04 -0.104685 -0.0360475 0.04 -0.100696 -0.0360475 0.04 -0.0967069
[...]
POINT_DATA 17673
FIELD attributes 1
Mode3 3 17673 float
0 0 0 -5.63641e-05 0 -0.000307462 0 16.6 0 0 8.25622
0 0 0 0 -0.000111646 0 -0.000416017 0 0 0
-0.000163 -0.0743826 -0.0004183 0 0 0 -0.0002089 -0.0761786 -0.000350096 0
0 0 -0.00024854 -0.00179592 -0.00024747 0 0 0 -0.000281749 0.00715165
-0.000119339 0 0 0 -0.000307718 0.00715166 4.2199e-05 0 0 0
-0.000325356 0.00684989 0.000187438 0 0 0 -0.000333944 -0.00561771 0.00029863 0
0 0 -0.00033287 -0.0130657 0.000392095 0 0 0 -0.000321814 -0.0452012
0.000449451 0 0 0 -0.000298348 -0.0893242 0.000419677 0 0 0
-0.000259731 -0.043137 0.000290276 0 0 0 -0.00020552 0.00478157 2.24771e-05 0
0 0 -0.00013402 -0.00261975 -0.00047425 0 0 0 -4.2092e-05 -0.00867875
-0.00132964 0 0 0 7.50672e-05 -0.0103445 -0.0027388 0 0 0
0.000219474 -0.0158007 -0.00510594 0 0 0 0.000396196 -0.0239281 -0.00926145 0
0 0 0.000617344 -0.023872 -0.0159047 0 0 0 0.000891881 -0.0284098
-0.024778 0 0 0 0.00123471 -0.0321177 -0.0347777 0 0 0
0.00165877 -0.00312832 -0.0445025 0 0 0 0.00217308 0.0122303 -0.0526431 0
0 0 0.0027901 6.04601e-06 -0.0580107 0 0 0 0.00352985 0.00783611
-0.0595196 0 0 0 0.00441603 0.0213251 -0.0565998 0 0 0
0.00546232 0.0334567 -0.0494364 0 0 0 0.00667055 0.0489234 -0.0389269 0
0 0 0.00804692 0.0298549 -0.0264032 0 0 0 0.00961494 0.0272989
-0.0136184 0 0 0 0.0113869 0.0302748 -0.00241584 0 0 0
0.0133769 0.0494263 0.00655194 0 0 0 0.0155566 0.0910827 0.0136882 0
0 0 0.0179276 0.0923488 0.0196933 0 0 0 0.020514 0.0873754
0.0249458 0 0 0 0.0233054 0.0784753 0.0293516 0 0 0
0.0263124 0.0704483 0.0328206 0 0 0 0.0295167 0.0640344 0.0357535 0
0 0 0.032905 0.0383351 0.0384632 0 0 0 0.0364846 0.04567
0.0408734 0 0 0 0.0402481 0.0712401 0.0435116 0 0 0
0.0441873 0.0837477 0.0466364 0 0 0 0.0482821 0.085034 0.0498771 0
0 0 0.0524892 0.0586271 0.0533698 0 0 0 0.0568527 0.0524463
0.0570077 0 0 0 0.0613457 0.0435266 0.0609346 0 0 0
0.0658862 0.0183171 0.0648337 0 0 0 0.0705572 0.0159599 0.0683719 0
0 0 0.075334 0.0184986 0.0720283 0 0 0 0.0801576 0.0127288
0.0754183 0 0 0 0.0850879 0.0109867 0.078568 0 0 0
0.0900491 0.00912393 0.082097 0 0 0 0.0950129 0.0154506 0.0854965 0
0 0 0.100008 -0.00644626 0.0886705 0 0 0 0.105036 -0.0467711
0.0919965 0 0 0 0.11002 -0.0417955 0.0951452 0 0 0
0.114814 -0.0275052 0.0982503 0.11983 -0.0462192 0.101452 0 0 0 -5.26102e-05
0 -0.000261124 0 16.6 0 -0.000103796 0 -0.000346357 -0.000150817 -0.0740813
-0.000327695 -0.000192212 -0.0740812 -0.000249334 -0.000227107 0 -0.000141648 -0.000254619 -0.0102612 -3.58152e-05
-0.000273512 -0.0157806 0.000111526 -0.000282687 0.000901237 0.000286555 -0.000282037 0.0221412 0.000429198 -0.000270642
0.0222127 0.000546818 -0.000246357 -0.0121659 0.000614266 -0.000208757 -0.0358263 0.00060655 -0.000156034 -0.00504574
0.000500193 -8.46211e-05 0.00208876 0.000276965 6.29507e-06 -0.0130015 -0.00012299 0.000118059 0.0129543 -0.000775566
0.000257783 0.0322502 -0.00177317 0.000429646 0.0109265 -0.00319325 0.000636226 -0.0302001 -0.00510376 0.00088936
-0.0438785 -0.0075149 0.00120032 -0.0332256 -0.010277 0.00158248 -0.0812453 -0.0132467 0.00204793 -0.103525
-0.0163427 0.00261187 -0.100016 -0.0194273 0.00329009 -0.142155 -0.0223047 0.004105 -0.168084 -0.0241745
0.00507305 -0.201248 -0.0245019 0.00619955 -0.226491 -0.0237421 0.0074846 -0.231583 -0.0222875 0.00895143
-0.242549 -0.0203676 0.0106083 -0.238768 -0.0181965 0.0124528 -0.233614 -0.0160321 0.01452 -0.216934
-0.0136946 0.0167958 -0.17975 -0.0110219 0.0192704 -0.161532 -0.0080873 0.021951 -0.142645 -0.0049189
0.0248355 -0.127445 -0.00171832 0.027936 -0.131089 0.000817307 0.0312247 -0.120493 0.00295915 0.0347039
-0.125162 0.00536064 0.0383899 -0.139789 0.00753683 0.0422572 -0.11821 0.00994974 0.0463014 -0.103096
0.0129045 0.0505183 -0.0911713 0.0162241 0.0548768 -0.0850173 0.0201511 0.0593685 -0.0880039 0.0244919
0.0639599 -0.0894402 0.0290951 0.0686652 -0.0941212 0.0337415 0.0734873 -0.0832392 0.0382945 0.078357
-0.0808616 0.043093 0.0833526 -0.0838253 0.0486668 0.0884666 -0.0676986 0.0535523 0.0935791 -0.0722556
0.0581797 0.0987585 -0.0770155 0.0630648 0.10397 -0.0635443 0.0679248 0.109096 -0.0812537 0.074513
0.114224 -0.0808133 0.0809053 0.119249 -0.0605043 0.0859249 0.124343 -0.0793063 0.0924238 -5.2522e-05
0 -0.000120523 0 16.6 0 -0.000101307 0 -0.000129591 -0.000144817 0
-6.93321e-05 -0.000181841 0 3.73331e-05 -0.000211207 0 0.000197362 -0.000231694 -0.0102612 0.000380799
-0.000242239 -0.0164987 0.000591062 -0.00024164 -0.0276742 0.000836779 -0.00022921 -0.0314331 0.0010942 -0.00020399
-0.00712017 0.00132393 -0.000163329 0.0243581 0.00151805 -0.000107585 0.0495805 0.00168008 -3.64126e-05 0.0579787
0.00179014 5.58529e-05 0.0382056 0.00181625 0.000170608 -0.00887948 0.00172907 0.000309494 -0.0377107 0.0015452
0.00047943 -0.0115284 0.00124915 0.000685259 0.00167527 0.000879997 0.000928149 -0.0475908 0.00061739 0.00121852
-0.0749025 0.000596495 0.00157251 -0.0457266 0.000676754 0.00200476 -0.0436677 0.000559244 0.00252463 -0.0502949
-0.000195418 0.00314655 -0.0554949 -0.002118 0.0038838 -0.0678978 -0.00550773 0.00476152 -0.0736177 -0.00970606
0.00578421 -0.0941955 -0.0139441 0.00694286 -0.0975983 -0.018215 0.00825051 -0.102468 -0.0221145 0.00973237
-0.101459 -0.0252496 0.0113992 -0.0885308 -0.0276104 0.0132498 -0.0979311 -0.0288797 0.0152916 -0.104674
-0.0287863 0.0175273 -0.0925282 -0.0276711 0.0199469 -0.0807213 -0.0259313 0.022563 -0.0517001 -0.0232238
0.0254068 -0.0463445 -0.0196145 0.0284683 -0.0647234 -0.0155108 0.0317412 -0.0679208 -0.0108475 0.0352226
-0.0704127 -0.00547188 0.0389076 -0.0940993 0.00029332 0.0427832 -0.0997216 0.00624297 0.0468522 -0.0979378
0.0123903 0.051096 -0.10102 0.0186656 0.05549 -0.0960268 0.023742 0.0599884 -0.106268 0.0290256
0.0646335 -0.120024 0.0356259 0.0694334 -0.128196 0.0410367 0.0743258 -0.124323 0.0467738 0.0792705
-0.129993 0.0539587 0.0843393 -0.140987 0.06204 0.0895214 -0.145264 0.0688749 0.0946903 -0.161761
0.0743459 0.0999135 -0.173779 0.0794247 0.105237 -0.167007 0.0863369 0.110486 -0.179355 0.0953197
0.115684 -0.17226 0.102165 0.120866 -0.167169 0.108383 0.126087 -0.200227 0.11558 -5.11175e-05
0 -4.29324e-07 0 16.6 0 -9.80955e-05 0 9.19122e-05 -0.000139377 0
0.000233901 -0.000173529 0 0.000433397 -0.000199167 0 0.00069056 -0.000214993 0 0.000978414
-0.000219822 -0.000718008 0.00130324 -0.000212657 -0.0390817 0.00165295 -0.000191921 -0.0948512 0.00201956 -0.000156924
-0.0935393 0.00236014 -0.000106377 -0.0547938 0.00267836 -3.88469e-05 -0.0197509 0.00297386 4.70517e-05 0.0166514
0.0032316 0.000153945 0.046023 0.00339804 0.000285086 0.0103395 0.00348576 0.000443872 -0.0817675 0.00351141
0.000632553 -0.115235 0.00347044 0.00085909 -0.0754412 0.00337008 0.00112706 -0.0366024 0.00324196 0.00144557
-0.0515137 0.00311936 0.0018305 -0.062631 0.00303005 0.00229283 -0.0214406 0.00254699 0.00284566 -0.0242319
0.000989106 0.00349165 -0.0391213 -0.00218558 0.00423462 -0.0384542 -0.00739405 0.00510522 -0.049831 -0.0138656
0.00611281 -0.0655747 -0.0202622 0.00725198 -0.0613504 -0.0256424 0.00853058 -0.0374082 -0.0288724 0.00996207
-0.0443083 -0.0297699 0.0115375 -0.0488356 -0.0290209 0.0132603 -0.0448336 -0.0267176 0.0151771 -0.0593695
-0.02345 0.0173193 -0.0662816 -0.0200287 0.0196509 -0.0564791 -0.0166789 0.0221886 -0.045446 -0.0128172
0.0249918 -0.0553126 -0.00860125 0.028013 -0.0739222 -0.00403655 0.0312327 -0.0799101 0.00199297 0.0346636
-0.0868235 0.00839021 0.038308 -0.100322 0.0145537 0.0421676 -0.113656 0.0215969 0.0462248 -0.11926
0.0298102 0.0504559 -0.127186 0.0374818 0.0548499 -0.141794 0.0427457 0.0593566 -0.148076 0.0496858
0.0640215 -0.156558 0.0590344 0.06885 -0.163923 0.065666 0.0737704 -0.174511 0.0728572 0.0787927
-0.183207 0.0813242 0.0839298 -0.186994 0.0896315 0.0891402 -0.203702 0.0982285 0.0944033 -0.210738
0.105395 0.099697 -0.21362 0.110688 0.105077 -0.225075 0.118429 0.110487 -0.230174 0.127915
0.115856 -0.223261 0.13446 0.121193 -0.241294 0.141751 0.126554 -0.255325 0.149597 -4.94712e-05
0 0.000122432 0 16.6 0 -9.49488e-05 0 0.000318765 -0.000134637 0
0.000570432 -0.000167102 0 0.000876745 -0.000190905 0 0.00123874 -0.000204561 0 0.00163883
-0.000206631 0 0.00208037 -0.000196092 -0.0102745 0.00253294 -0.000171538 -0.071607 0.0029909 -0.0001321
-0.126637 0.00344644 -7.67641e-05 -0.116082 0.00387616 -3.75644e-06 -0.0839445 0.00426772 8.95946e-05 -0.0456516
0.00461863 0.000204466 -0.0114667 0.00489097 0.000343044 0.00077789 0.00508969 0.00051036 -0.0639003 0.00526303
0.000708025 -0.140099 0.00533528 0.000942168 -0.107984 0.00536737 0.00122044 -0.00657174 0.00556878 0.00155019
0.0250159 0.00587102 0.00194439 -0.0136451 0.00638169 0.00241271 -0.0131553 0.00599136 0.00295893 -0.0257007
0.00328038 0.00357839 -0.0492802 -0.00185856 0.00428566 -0.0538371 -0.00909142 0.00510817 -0.0559533 -0.0170165
0.00606238 -0.0539546 -0.0234536 0.0071506 -0.0428174 -0.0275756 0.00835924 -0.0219581 -0.0288901 0.00968296
-0.0368725 -0.0275616 0.0111382 -0.0476101 -0.0245408 0.0127708 -0.0453341 -0.0202662 0.0146227 -0.069061
-0.015455 0.0167117 -0.0701598 -0.0103634 0.0190021 -0.0741254 -0.00514993 0.0215018 -0.0905735 0.000466135
0.0242429 -0.0921249 0.00639009 0.0271885 -0.106767 0.0122394 0.0303229 -0.115158 0.0193079 0.0336712
-0.115781 0.027079 0.0372452 -0.128257 0.0338384 0.0410304 -0.14445 0.0410623 0.0450143 -0.148065
0.0491001 0.049181 -0.154566 0.0559842 0.0535317 -0.170671 0.062165 0.0580197 -0.174926 0.070898
0.0626515 -0.171684 0.080774 0.0674651 -0.16565 0.0873796 0.0723809 -0.173329 0.0942255 0.0774415
-0.195894 0.101396 0.0826339 -0.215624 0.110292 0.0878684 -0.223389 0.119782 0.0931944 -0.21464
0.127091 0.0986127 -0.230698 0.132329 0.104048 -0.253581 0.138708 0.10951 -0.237122 0.146785
0.115022 -0.248667 0.152187 0.120433 -0.265429 0.158349 0.125931 -0.244134 0.165295 -4.79823e-05
0 0.000248837 0 16.6 0 -9.21659e-05 0 0.000564262 -0.00013084 0
0.000929821 -0.000162516 0 0.00133925 -0.000185595 0 0.00181726 -0.000198814 0 0.00234821
-0.000200629 0 0.00290485 -0.000189748 0.00023174 0.00345852 -0.000164826 -0.0406259 0.00403034 -0.000125152
-0.11094 0.004593 -6.90129e-05 -0.136824 0.00511687 4.57484e-06 -0.121281 0.00559618 9.76014e-05 -0.0945434
0.00600809 0.000212553 -0.0643862 0.00634475 0.000350586 -0.0328078 0.00661836 0.000516128 -0.0399467 0.00684295
0.000713022 -0.0766616 0.00690421 0.000946179 -0.0732557 0.00699164 0.00122003 -0.0128666 0.00719723 0.00154331
0.0362007 0.00734167 0.00192891 0.0210865 0.00742366 0.00238018 -0.0259278 0.00605473 0.00289268 -0.052284
0.00180193 0.00346779 -0.0525634 -0.00493804 0.00413051 -0.0439119 -0.0128553 0.0049093 -0.0253848 -0.0201852
0.00580769 -0.0124198 -0.0248296 0.0068179 -0.0187273 -0.0258008 0.00792998 -0.030589 -0.023683 0.00914107
-0.0397493 -0.0195322 0.0105124 -0.0407166 -0.0141811 0.0121025 -0.0490787 -0.00838047 0.0138794 -0.0738619
-0.00237503 0.0158401 -0.0834902 0.00406146 0.0180017 -0.102769 0.0110098 0.0203725 -0.117668 0.0175502
0.0229549 -0.114797 0.0244246 0.0257411 -0.12237 0.0321593 0.0287468 -0.120334 0.0391816 0.0319762
-0.125283 0.0474605 0.0354191 -0.15692 0.0559034 0.0390712 -0.157749 0.0635031 0.0429304 -0.158465
0.070511 0.046999 -0.170567 0.0770892 0.0512699 -0.164466 0.0841251 0.0556876 -0.17152 0.0914505
0.060272 -0.178505 0.0985952 0.065047 -0.160265 0.105793 0.0699411 -0.148897 0.111989 0.0750116
-0.191555 0.117041 0.0802178 -0.22793 0.124436 0.0854823 -0.222625 0.131184 0.0908127 -0.226325
0.137999 0.0963019 -0.241776 0.142182 0.101859 -0.246519 0.147088 0.107415 -0.226934 0.153446
0.11305 -0.232504 0.155247 0.118577 -0.237167 0.160093 0.124258 -0.219139 0.165199 -4.69465e-05
0 0.000364839 0 16.6 0 -9.02211e-05 0 0.000786539 -0.000128326 0
0.00126557 -0.000159932 0 0.00181752 -0.000183329 0 0.00243708 -0.000197193 0 0.00308026
-0.00020004 0 0.00373611 -0.00019059 0 0.00440183 -0.000167617 -0.0133893 0.00508672 -0.000130251
-0.0708286 0.00574563 -7.69884e-05 -0.127289 0.00634809 -6.88834e-06 -0.137592 0.00688801 8.10112e-05 -0.124463
0.00734544 0.000190196 -0.0991483 0.00773997 0.000322805 -0.0731912 0.00803268 0.000480129 -0.0405717 0.00821213
0.000667305 -0.00834375 0.00824674 0.000889111 -0.0175335 0.00827385 0.00114736 -0.0195245 0.00832634 0.00145223
0.0233583 0.00816876 0.00181561 0.0364128 0.00758342 0.00223452 -0.0128561 0.00545783 0.00270572 -0.0653285
0.000631222 0.00323427 -0.0630905 -0.00640295 0.00384044 -0.0156335 -0.0140034 0.00455138 0.00638331 -0.0201854
0.00537369 -0.0161038 -0.0227523 0.00629471 -0.0426227 -0.0208163 0.00729752 -0.0562779 -0.0155371 0.0084092
-0.0457834 -0.00857518 0.00968793 -0.0402963 -0.00100509 0.01114 -0.0566616 0.00650311 0.0127452 -0.0698218
0.0136278 0.0145165 -0.0888569 0.0203918 0.0164838 -0.105078 0.0268683 0.0186556 -0.115358 0.033482
0.0210395 -0.125887 0.0403058 0.0236334 -0.122925 0.047626 0.0264357 -0.107143 0.0542426 0.0294546
-0.111774 0.0616298 0.0327041 -0.144414 0.0696051 0.0361809 -0.145192 0.0766924 0.0398689 -0.141951
0.0841363 0.0437804 -0.157886 0.0909605 0.0479035 -0.167185 0.0972141 0.0521972 -0.165568 0.103282
0.0566633 -0.168824 0.107355 0.0613495 -0.170095 0.113469 0.0662045 -0.167189 0.120186 0.0711737
-0.185006 0.124098 0.0762731 -0.192063 0.128167 0.0815462 -0.180794 0.13144 0.086893 -0.199933
0.135588 0.092353 -0.210442 0.138109 0.097935 -0.199508 0.1412 0.103542 -0.198069 0.146263
0.109234 -0.185499 0.146661 0.114881 -0.177923 0.148418 0.120685 -0.192811 0.15171 -4.63727e-05
0 0.000479266 0 16.6 0 -8.92519e-05 0 0.00102283 -0.000127335 0
0.00162246 -0.000159354 0 0.00230417 -0.000183566 0 0.00306584 -0.000198772 0 0.00382714
-0.00020348 0 0.00460262 -0.000196306 0 0.00541356 -0.000176466 -0.000985944 0.00620356 -0.000142705
-0.0331059 0.00693784 -9.38674e-05 -0.0940063 0.00760712 -2.93009e-05 -0.1358 0.00818108 5.11011e-05 -0.139625
0.00867306 0.00015105 -0.121852 0.00907239 0.000274242 -0.101942 0.00935497 0.000419488 -0.0601954 0.00953099
0.000590681 0.0134046 0.00947773 0.000792751 0.0430156 0.00913501 0.00102944 0.0206683 0.0087972 0.00130768
0.00428082 0.00831492 0.001637 -0.00669031 0.00724004 0.00201666 -0.0218466 0.00467892 0.0024422 -0.0510173
-0.000360547 0.00291522 -0.0544827 -0.00719553 0.00344933 -0.00213278 -0.014029 0.00407407 0.00516438 -0.0185124
0.00480273 -0.035339 -0.018167 0.00560855 -0.0425085 -0.0131507 0.0064804 -0.0566888 -0.00544796 0.00745548
-0.0596338 0.00312939 0.00856119 -0.0478442 0.0112421 0.00979191 -0.0573505 0.0188917 0.0111738 -0.0703646
0.0259779 0.0127246 -0.0807635 0.0322797 0.0144475 -0.0832061 0.0381958 0.0163528 -0.104225 0.044584
0.0184704 -0.112983 0.0521137 0.0208103 -0.0973929 0.0600808 0.023344 -0.106021 0.0660893 0.0260961
-0.11544 0.071366 0.0290847 -0.118158 0.0778377 0.0322989 -0.119788 0.08626 0.0357544 -0.118109
0.0929191 0.0394432 -0.135304 0.0966851 0.0433272 -0.158949 0.103374 0.0474186 -0.158082 0.108872
0.0517 -0.145658 0.110704 0.0562017 -0.155261 0.113993 0.0609296 -0.174239 0.117783 0.0657469
-0.151609 0.121082 0.0707035 -0.13492 0.124297 0.07587 -0.144896 0.126775 0.0811634 -0.142661
0.128468 0.0865537 -0.148552 0.129865 0.0920828 -0.154709 0.131437 0.0977171 -0.163867 0.133114
0.103384 -0.160745 0.133102 0.109044 -0.133755 0.13113 0.114885 -0.128905 0.131335 -4.63002e-05
0 0.000589009 0 16.6 0 -8.93842e-05 0 0.00126195 -0.000127906 0
0.00198855 -0.000160604 0 0.00277795 -0.000185936 0 0.00367053 -0.000202567 0 0.00458776
-0.000208926 0 0.00550664 -0.000203906 0 0.00643553 -0.000186826 0 0.00733074 -0.000156559
-0.00502497 0.00815337 -0.00011215 -0.041034 0.00887613 -5.33022e-05 -0.0952794 0.00949467 2.08393e-05 -0.130676
0.0100024 0.000112049 -0.13713 0.010355 0.000222385 -0.123553 0.0105763 0.000352881 -0.0940555 0.0105961
0.000506118 -0.017243 0.0104375 0.000684707 0.0681036 0.00990455 0.000893555 0.078725 0.0091529 0.00113936
0.0201032 0.00823619 0.00142801 -0.0399513 0.00690062 0.00176281 -0.0760413 0.00424427 0.0021392 -0.0814311
-0.000648175 0.00255017 -0.0370364 -0.00683734 0.00300799 0.0175989 -0.0127529 0.00354175 0.00763612 -0.0154549
0.00415451 -0.0389539 -0.0126521 0.00481373 -0.0343054 -0.00574966 0.00551468 -0.0340304 0.00290753 0.00628859
-0.0550143 0.0115742 0.0071519 -0.0474811 0.0194034 0.00811699 -0.0393931 0.0268372 0.00923052 -0.0509231
0.0338002 0.0104921 -0.059283 0.0404542 0.0119103 -0.0610495 0.0474407 0.0135168 -0.0774631 0.0524404
0.0153049 -0.073632 0.0586732 0.0172922 -0.0653083 0.0666464 0.0194966 -0.0835957 0.0713643 0.0219157
-0.0998879 0.075328 0.0245584 -0.0932265 0.0817359 0.0274369 -0.0931885 0.0908961 0.0305583 -0.103517
0.0949413 0.0339207 -0.102945 0.0959515 0.0374994 -0.113155 0.102929 0.041295 -0.118964 0.10802
0.0452933 -0.0944426 0.109026 0.0495067 -0.0930349 0.11234 0.0539422 -0.116824 0.11421 0.0585569
-0.0919408 0.115564 0.0633341 -0.0981271 0.117449 0.0682687 -0.117283 0.118869 0.0733739 -0.0900147
0.11924 0.0786642 -0.0918308 0.120228 0.0840937 -0.114961 0.120342 0.0895734 -0.13031 0.117312
0.0951746 -0.122479 0.115273 0.100785 -0.0843412 0.112111 0.106573 -0.0690169 0.110625 -4.66897e-05
0 0.000687006 0 16.6 0 -9.04202e-05 0 0.00145656 -0.000129676 0
0.00232325 -0.000163035 0 0.00327592 -0.000189169 0 0.0042875 -0.000206428 0 0.00534504
-0.000213193 0 0.00641031 -0.000208791 0 0.00743203 -0.000192389 0 0.00842937 -0.000163274
0.0020283 0.00934357 -0.000121062 -0.00127021 0.0101268 -6.58134e-05 -0.0424333 0.0107852 3.53068e-06 -0.0992904
0.0112094 8.7192e-05 -0.131562 0.0114235 0.000185665 -0.141085 0.0114449 0.000301865 -0.127244 0.0112157
0.000437842 -0.0743682 0.0109154 0.000593729 0.022072 0.0103042 0.000775193 0.0823423 0.00939073 0.000987749
0.0709936 0.00822939 0.00123431 0.0202077 0.0065895 0.00152248 -0.0580643 0.00380557 0.00184852 -0.102273
-0.000647 0.00219982 -0.0548689 -0.00630845 0.00258294 -0.0040028 -0.0111924 0.00302362 -0.032333 -0.0119129
0.00351936 -0.0646187 -0.00763101 0.00402371 -0.0461906 -0.000530357 0.00451254 -0.0579457 0.00761149 0.00503031
-0.061458 0.0156651 0.00561397 -0.0319044 0.0231338 0.00629434 -0.0232772 0.0301598 0.00711136 -0.0321331
0.0367009 0.00803639 -0.0420911 0.0439126 0.00910752 -0.0480465 0.0511998 0.0103543 -0.0540938 0.0563005
0.0117683 -0.044805 0.0613348 0.0133752 -0.0434618 0.0672043 0.0151743 -0.0449018 0.0720131 0.0171612
-0.0541325 0.0773711 0.0193714 -0.0587018 0.0840125 0.0218458 -0.0561547 0.090057 0.0245481 -0.0637658
0.0937979 0.0274844 -0.0570183 0.0960257 0.0306689 -0.0402345 0.0995116 0.0340715 -0.0503181 0.104685
0.037687 -0.037768 0.107295 0.0415257 -0.0378217 0.110557 0.0455793 -0.0575063 0.114943 0.0498984
-0.0406222 0.116142 0.0544028 -0.0511957 0.113764 0.0590477 -0.0621784 0.112534 0.0639054 -0.0597463
0.111618 0.0689688 -0.0655372 0.109905 0.0741506 -0.0854841 0.107955 0.0793841 -0.0962346 0.104422
0.0848348 -0.0740754 0.10074 0.0902437 -0.0546832 0.0954252 0.0959824 -0.0489369 0.0909645 -4.73893e-05
0 0.000767761 0 16.6 0 -9.18243e-05 0 0.00161794 -0.000131682 0
0.00259168 -0.000165176 0 0.0036848 -0.00019073 0 0.00484358 -0.000206747 0 0.00602975
-0.000211728 0 0.00722518 -0.000204871 0 0.00837238 -0.000185811 0 0.00945242 -0.000154226
0 0.0104222 -0.000110454 0.00578181 0.0112495 -5.52253e-05 -0.0149822 0.0118903 1.15808e-05 -0.0692824
0.012286 9.00751e-05 -0.110433 0.0123485 0.000181493 -0.139675 0.0121249 0.000286879 -0.153572 0.0118373
0.000406653 -0.133198 0.0113496 0.000543393 -0.0541839 0.0104472 0.0007021 0.0298843 0.00930303 0.000885351
0.0635972 0.0079597 0.00109702 0.0627868 0.00613947 0.00134584 0.0194469 0.00345116 0.00162864 -0.0436308
-0.000737634 0.00193156 -0.0303746 -0.00614606 0.00225483 0.0180464 -0.0100034 0.00262354 -0.02131 -0.00910203
0.00301433 -0.0436782 -0.0043043 0.00336926 -0.0078003 0.00184228 0.00365895 -0.044835 0.00868794 0.00393355
-0.0491238 0.0159121 0.0042516 -0.0230952 0.0229475 0.00465238 -0.0194704 0.0296264 0.00515634 -0.00992931
0.0361869 0.00575609 -0.0199183 0.043018 0.00647921 -0.0215257 0.0491283 0.00734462 -0.0234252 0.0547342
0.00835998 -0.0173722 0.0608995 0.00955297 -0.0129759 0.0658271 0.0109124 -0.0200236 0.0703248 0.0124421