# vtk DataFile Version 2.0
sampleSurface
ASCII
DATASET POLYDATA
POINTS 17673 float
0.04 -0.184464 -0.06 0.04 -0.184464 -0.0559273 0.04 -0.188453 -0.0559273 0.04 -0.188453
-0.06 0.04 -0.180475 -0.06 0.04 -0.180475 -0.0559273 0.04 -0.176486 -0.06
0.04 -0.176486 -0.0559273 0.04 -0.172497 -0.06 0.04 -0.172497 -0.0559273 0.04
-0.168508 -0.06 0.04 -0.168508 -0.0559273 0.04 -0.164519 -0.06 0.04 -0.164519
-0.0559273 0.04 -0.16053 -0.06 0.04 -0.16053 -0.0559273 0.04 -0.156541 -0.06
0.04 -0.156541 -0.0559273 0.04 -0.152552 -0.06 0.04 -0.152552 -0.0559273 0.04
-0.148563 -0.06 0.04 -0.148563 -0.0559273 0.04 -0.144574 -0.06 0.04 -0.144574
-0.0559273 0.04 -0.140586 -0.06 0.04 -0.140586 -0.0559273 0.04 -0.136596 -0.06
0.04 -0.136596 -0.0559273 0.04 -0.132607 -0.06 0.04 -0.132607 -0.0559273 0.04
-0.128619 -0.06 0.04 -0.128619 -0.0559273 0.04 -0.12463 -0.06 0.04 -0.12463
-0.0559273 0.04 -0.120641 -0.06 0.04 -0.120641 -0.0559273 0.04 -0.116652 -0.06
0.04 -0.116652 -0.0559273 0.04 -0.112663 -0.06 0.04 -0.112663 -0.0559273 0.04
-0.108674 -0.06 0.04 -0.108674 -0.0559273 0.04 -0.104685 -0.06 0.04 -0.104685
-0.0559273 0.04 -0.100696 -0.06 0.04 -0.100696 -0.0559273 0.04 -0.0967069 -0.06
0.04 -0.0967069 -0.0559273 0.04 -0.0927179 -0.06 0.04 -0.0927179 -0.0559273 0.04
-0.088739 -0.06 0.04 -0.0887391 -0.0559273 0.04 -0.0847775 -0.06 0.04 -0.0847775
-0.0559273 0.04 -0.0809835 -0.06 0.04 -0.0809835 -0.0559273 0.04 -0.0773956 -0.06
0.04 -0.0773956 -0.0559273 0.04 -0.0739968 -0.06 0.04 -0.0739968 -0.0559273 0.04
-0.0707629 -0.06 0.04 -0.0707629 -0.0559273 0.04 -0.0676784 -0.06 0.04 -0.0676784
-0.0559273 0.04 -0.0647301 -0.06 0.04 -0.0647301 -0.0559273 0.04 -0.0619431 -0.06
0.04 -0.0619431 -0.0559273 0.04 -0.0593321 -0.06 0.04 -0.0593321 -0.0559273 0.04
-0.0568459 -0.06 0.04 -0.0568459 -0.0559273 0.04 -0.0544545 -0.06 0.04 -0.0544545
-0.0559273 0.04 -0.0521732 -0.06 0.04 -0.0521732 -0.0559273 0.04 -0.0500374 -0.06
0.04 -0.0500374 -0.0559273 0.04 -0.0480123 -0.06 0.04 -0.0480123 -0.0559273 0.04
-0.046084 -0.06 0.04 -0.046084 -0.0559273 0.04 -0.0442254 -0.06 0.04 -0.0442254
-0.0559273 0.04 -0.0424486 -0.06 0.04 -0.0424486 -0.0559273 0.04 -0.0407648 -0.06
0.04 -0.0407648 -0.0559273 0.04 -0.0391821 -0.06 0.04 -0.0391821 -0.0559273 0.04
-0.0376993 -0.06 0.04 -0.0376993 -0.0559273 0.04 -0.0362943 -0.06 0.04 -0.0362943
-0.0559273 0.04 -0.0349524 -0.06 0.04 -0.0349524 -0.0559273 0.04 -0.0336651 -0.06
0.04 -0.0336651 -0.0559273 0.04 -0.0324289 -0.06 0.04 -0.0324289 -0.0559273 0.04
-0.0312728 -0.06 0.04 -0.0312728 -0.0559273 0.04 -0.0301752 -0.06 0.04 -0.0301752
-0.0559273 0.04 -0.0291177 -0.06 0.04 -0.0291177 -0.0559273 0.04 -0.0281145 -0.06
0.04 -0.0281145 -0.0559273 0.04 -0.0271661 -0.06 0.04 -0.0271661 -0.0559273 0.04
-0.0262754 -0.06 0.04 -0.0262754 -0.0559273 0.04 -0.02543 -0.06 0.04 -0.02543
-0.0559273 0.04 -0.0246256 -0.06 0.04 -0.0246256 -0.0559273 0.04 -0.0238573 -0.06
0.04 -0.0238573 -0.0559273 0.04 -0.023094 -0.0559273 0.04 -0.023094 -0.06 0.04
-0.184464 -0.0519514 0.04 -0.188453 -0.0519514 0.04 -0.180475 -0.0519514 0.04 -0.176486
-0.0519514 0.04 -0.172497 -0.0519514 0.04 -0.168508 -0.0519514 0.04 -0.164519 -0.0519514
0.04 -0.16053 -0.0519514 0.04 -0.156541 -0.0519514 0.04 -0.152552 -0.0519514 0.04
-0.148563 -0.0519514 0.04 -0.144574 -0.0519514 0.04 -0.140586 -0.0519514 0.04 -0.136596
-0.0519514 0.04 -0.132607 -0.0519514 0.04 -0.128619 -0.0519514 0.04 -0.12463 -0.0519514
0.04 -0.120641 -0.0519514 0.04 -0.116652 -0.0519514 0.04 -0.112663 -0.0519514 0.04
-0.108674 -0.0519514 0.04 -0.104685 -0.0519514 0.04 -0.100696 -0.0519514 0.04 -0.0967069
-0.0519514 0.04 -0.0927179 -0.0519514 0.04 -0.088739 -0.0519514 0.04 -0.0847775 -0.0519514
0.04 -0.0809835 -0.0519514 0.04 -0.0773956 -0.0519514 0.04 -0.0739968 -0.0519514 0.04
-0.0707629 -0.0519514 0.04 -0.0676784 -0.0519514 0.04 -0.0647301 -0.0519514 0.04 -0.0619431
-0.0519514 0.04 -0.0593321 -0.0519514 0.04 -0.0568459 -0.0519514 0.04 -0.0544545 -0.0519514
0.04 -0.0521732 -0.0519514 0.04 -0.0500374 -0.0519514 0.04 -0.0480123 -0.0519514 0.04
-0.046084 -0.0519514 0.04 -0.0442254 -0.0519514 0.04 -0.0424486 -0.0519514 0.04 -0.0407648
-0.0519514 0.04 -0.0391821 -0.0519514 0.04 -0.0376993 -0.0519514 0.04 -0.0362943 -0.0519514
0.04 -0.0349524 -0.0519514 0.04 -0.0336651 -0.0519514 0.04 -0.0324289 -0.0519514 0.04
-0.0312728 -0.0519514 0.04 -0.0301752 -0.0519514 0.04 -0.0291177 -0.0519514 0.04 -0.0281145
-0.0519514 0.04 -0.0271661 -0.0519514 0.04 -0.0262754 -0.0519514 0.04 -0.02543 -0.0519514
0.04 -0.0246256 -0.0519514 0.04 -0.0238573 -0.0519514 0.04 -0.023094 -0.0519514 0.04
-0.184464 -0.0479754 0.04 -0.188453 -0.0479754 0.04 -0.180475 -0.0479754 0.04 -0.176486
-0.0479754 0.04 -0.172497 -0.0479754 0.04 -0.168508 -0.0479754 0.04 -0.164519 -0.0479754
0.04 -0.16053 -0.0479754 0.04 -0.156541 -0.0479754 0.04 -0.152552 -0.0479754 0.04
-0.148563 -0.0479754 0.04 -0.144574 -0.0479754 0.04 -0.140586 -0.0479754 0.04 -0.136596
-0.0479754 0.04 -0.132607 -0.0479754 0.04 -0.128619 -0.0479754 0.04 -0.12463 -0.0479754
0.04 -0.120641 -0.0479754 0.04 -0.116652 -0.0479754 0.04 -0.112663 -0.0479754 0.04
-0.108674 -0.0479754 0.04 -0.104685 -0.0479754 0.04 -0.100696 -0.0479754 0.04 -0.0967069
-0.0479754 0.04 -0.0927179 -0.0479754 0.04 -0.0887391 -0.0479754 0.04 -0.0847775 -0.0479754
0.04 -0.0809835 -0.0479754 0.04 -0.0773956 -0.0479754 0.04 -0.0739968 -0.0479754 0.04
-0.0707629 -0.0479754 0.04 -0.0676784 -0.0479754 0.04 -0.0647301 -0.0479754 0.04 -0.0619431
-0.0479754 0.04 -0.0593321 -0.0479754 0.04 -0.0568459 -0.0479754 0.04 -0.0544545 -0.0479754
0.04 -0.0521732 -0.0479754 0.04 -0.0500374 -0.0479754 0.04 -0.0480123 -0.0479754 0.04
-0.046084 -0.0479754 0.04 -0.0442254 -0.0479754 0.04 -0.0424486 -0.0479754 0.04 -0.0407648
-0.0479754 0.04 -0.0391821 -0.0479754 0.04 -0.0376993 -0.0479754 0.04 -0.0362943 -0.0479754
0.04 -0.0349524 -0.0479754 0.04 -0.0336651 -0.0479754 0.04 -0.0324289 -0.0479754 0.04
-0.0312728 -0.0479754 0.04 -0.0301752 -0.0479754 0.04 -0.0291177 -0.0479754 0.04 -0.0281145
-0.0479754 0.04 -0.0271661 -0.0479754 0.04 -0.0262754 -0.0479754 0.04 -0.02543 -0.0479754
0.04 -0.0246256 -0.0479754 0.04 -0.0238573 -0.0479754 0.04 -0.023094 -0.0479754 0.04
-0.184464 -0.0439994 0.04 -0.188453 -0.0439994 0.04 -0.180475 -0.0439994 0.04 -0.176486
-0.0439994 0.04 -0.172497 -0.0439994 0.04 -0.168508 -0.0439994 0.04 -0.164519 -0.0439994
0.04 -0.16053 -0.0439994 0.04 -0.156541 -0.0439994 0.04 -0.152552 -0.0439994 0.04
-0.148563 -0.0439994 0.04 -0.144574 -0.0439994 0.04 -0.140586 -0.0439994 0.04 -0.136596
-0.0439994 0.04 -0.132607 -0.0439994 0.04 -0.128619 -0.0439994 0.04 -0.12463 -0.0439994
0.04 -0.120641 -0.0439994 0.04 -0.116652 -0.0439994 0.04 -0.112663 -0.0439994 0.04
-0.108674 -0.0439994 0.04 -0.104685 -0.0439994 0.04 -0.100696 -0.0439994 0.04 -0.0967069
-0.0439994 0.04 -0.0927179 -0.0439994 0.04 -0.0887391 -0.0439994 0.04 -0.0847775 -0.0439994
0.04 -0.0809835 -0.0439994 0.04 -0.0773956 -0.0439994 0.04 -0.0739968 -0.0439994 0.04
-0.0707629 -0.0439994 0.04 -0.0676784 -0.0439994 0.04 -0.0647301 -0.0439994 0.04 -0.0619431
-0.0439994 0.04 -0.0593321 -0.0439994 0.04 -0.0568459 -0.0439994 0.04 -0.0544545 -0.0439994
0.04 -0.0521732 -0.0439994 0.04 -0.0500374 -0.0439994 0.04 -0.0480123 -0.0439994 0.04
-0.046084 -0.0439994 0.04 -0.0442254 -0.0439994 0.04 -0.0424486 -0.0439994 0.04 -0.0407648
-0.0439994 0.04 -0.0391821 -0.0439994 0.04 -0.0376993 -0.0439994 0.04 -0.0362943 -0.0439994
0.04 -0.0349524 -0.0439994 0.04 -0.0336651 -0.0439994 0.04 -0.0324289 -0.0439994 0.04
-0.0312728 -0.0439994 0.04 -0.0301752 -0.0439994 0.04 -0.0291177 -0.0439994 0.04 -0.0281145
-0.0439994 0.04 -0.0271661 -0.0439994 0.04 -0.0262754 -0.0439994 0.04 -0.02543 -0.0439994
0.04 -0.0246256 -0.0439994 0.04 -0.0238573 -0.0439994 0.04 -0.023094 -0.0439994 0.04
-0.184464 -0.0400235 0.04 -0.188453 -0.0400235 0.04 -0.180475 -0.0400235 0.04 -0.176486
-0.0400235 0.04 -0.172497 -0.0400235 0.04 -0.168508 -0.0400235 0.04 -0.164519 -0.0400235
0.04 -0.16053 -0.0400235 0.04 -0.156541 -0.0400235 0.04 -0.152552 -0.0400235 0.04
-0.148563 -0.0400235 0.04 -0.144574 -0.0400235 0.04 -0.140586 -0.0400235 0.04 -0.136596
-0.0400235 0.04 -0.132607 -0.0400235 0.04 -0.128619 -0.0400235 0.04 -0.12463 -0.0400235
0.04 -0.120641 -0.0400235 0.04 -0.116652 -0.0400235 0.04 -0.112663 -0.0400235 0.04
-0.108674 -0.0400235 0.04 -0.104685 -0.0400235 0.04 -0.100696 -0.0400235 0.04 -0.0967069
-0.0400235 0.04 -0.0927179 -0.0400235 0.04 -0.088739 -0.0400235 0.04 -0.0847775 -0.0400235
0.04 -0.0809835 -0.0400235 0.04 -0.0773956 -0.0400235 0.04 -0.0739968 -0.0400235 0.04
-0.0707629 -0.0400235 0.04 -0.0676784 -0.0400235 0.04 -0.0647301 -0.0400235 0.04 -0.0619431
-0.0400235 0.04 -0.0593321 -0.0400235 0.04 -0.0568459 -0.0400235 0.04 -0.0544545 -0.0400235
0.04 -0.0521732 -0.0400235 0.04 -0.0500374 -0.0400235 0.04 -0.0480123 -0.0400235 0.04
-0.046084 -0.0400235 0.04 -0.0442254 -0.0400235 0.04 -0.0424486 -0.0400235 0.04 -0.0407648
-0.0400235 0.04 -0.0391821 -0.0400235 0.04 -0.0376993 -0.0400235 0.04 -0.0362943 -0.0400235
0.04 -0.0349524 -0.0400235 0.04 -0.0336651 -0.0400235 0.04 -0.0324289 -0.0400235 0.04
-0.0312728 -0.0400235 0.04 -0.0301752 -0.0400235 0.04 -0.0291177 -0.0400235 0.04 -0.0281145
-0.0400235 0.04 -0.0271661 -0.0400235 0.04 -0.0262754 -0.0400235 0.04 -0.02543 -0.0400235
0.04 -0.0246256 -0.0400235 0.04 -0.0238573 -0.0400235 0.04 -0.023094 -0.0400235 0.04
-0.184464 -0.0360475 0.04 -0.188453 -0.0360475 0.04 -0.180475 -0.0360475 0.04 -0.176486
-0.0360475 0.04 -0.172497 -0.0360475 0.04 -0.168508 -0.0360475 0.04 -0.164519 -0.0360475
0.04 -0.16053 -0.0360475 0.04 -0.156541 -0.0360475 0.04 -0.152552 -0.0360475 0.04
-0.148563 -0.0360475 0.04 -0.144574 -0.0360475 0.04 -0.140586 -0.0360475 0.04 -0.136596
-0.0360475 0.04 -0.132607 -0.0360475 0.04 -0.128619 -0.0360475 0.04 -0.12463 -0.0360475
0.04 -0.120641 -0.0360475 0.04 -0.116652 -0.0360475 0.04 -0.112663 -0.0360475 0.04
-0.108674 -0.0360475 0.04 -0.104685 -0.0360475 0.04 -0.100696 -0.0360475 0.04 -0.0967069
[...]
POINT_DATA 17673
FIELD attributes 1
Mode6 3 17673 float
0 0 0 0.000276161 0 -6.28249e-05 0 16.6 0 0 8.25622
0 0 0 0 0.000566137 0 -0.000171867 0 0 0
0.000871714 -0.00297133 -0.000304206 0 0 0 0.00119836 0.0047786 -0.000434397 0
0 0 0.00155349 0.00774994 -0.000600644 0 0 0 0.00194588 -0.00724341
-0.000773256 0 0 0 0.00238431 -0.00724342 -0.000904314 0 0 0
0.00287935 -0.00701979 -0.00106952 0 0 0 0.00344309 -0.0122484 -0.00126642 0
0 0 0.00408879 -0.0156593 -0.00147193 0 0 0 0.00483188 -0.0223797
-0.00168366 0 0 0 0.00569134 -0.031232 -0.00188459 0 0 0
0.00668817 -0.017549 -0.002088 0 0 0 0.00784763 0.000247659 -0.00228384 0
0 0 0.00919791 -0.000913224 -0.00244086 0 0 0 0.0107713 0.00714581
-0.00256246 0 0 0 0.012607 0.0290838 -0.00264316 0 0 0
0.0147517 0.0415702 -0.00257191 0 0 0 0.0172613 0.0296846 -0.00223961 0
0 0 0.0201988 0.0201653 -0.00162779 0 0 0 0.0236358 0.0158611
-0.000903043 0 0 0 0.0276607 -0.00236736 -0.000203332 0 0 0
0.0323809 -0.0226138 0.000457568 0 0 0 0.0379107 0.0152695 0.00103099 0
0 0 0.0443776 0.0609489 0.00150728 0 0 0 0.051868 0.0571836
0.00179154 0 0 0 0.060263 0.046657 0.0018005 0 0 0
0.06949 0.0596797 0.00153369 0 0 0 0.0795531 0.0595597 0.000868341 0
0 0 0.0904875 0.0587361 -0.000214569 0 0 0 0.102335 0.0647222
-0.0015097 0 0 0 0.115105 0.065425 -0.00296142 0 0 0
0.128653 0.064147 -0.00431777 0 0 0 0.142868 0.0401041 -0.00529874 0
0 0 0.15787 0.0513645 -0.00599377 0 0 0 0.173754 0.0426821
-0.00650378 0 0 0 0.190371 0.0616898 -0.00691161 0 0 0
0.20751 0.0885181 -0.00712213 0 0 0 0.225177 0.0667607 -0.00715085 0
0 0 0.243436 0.05794 -0.00726519 0 0 0 0.262381 0.0706413
-0.00730721 0 0 0 0.281889 0.0885843 -0.00710503 0 0 0
0.301736 0.0931537 -0.00708056 0 0 0 0.32171 0.104787 -0.00710236 0
0 0 0.341717 0.0827032 -0.00697506 0 0 0 0.361891 0.0714565
-0.00692148 0 0 0 0.382255 0.0745192 -0.00672192 0 0 0
0.402836 0.0670666 -0.00640343 0 0 0 0.423571 0.097352 -0.00621741 0
0 0 0.444176 0.113492 -0.00590999 0 0 0 0.464675 0.0972848
-0.00549752 0 0 0 0.485163 0.0832618 -0.00505279 0 0 0
0.505562 0.0767579 -0.00453631 0 0 0 0.525657 0.0822217 -0.00397868 0
0 0 0.545311 0.0944334 -0.00329471 0 0 0 0.564772 0.113692
-0.00260133 0 0 0 0.58395 0.107375 -0.00189502 0 0 0
0.60289 0.102922 -0.00111992 0.621978 0.0993951 -0.000219696 0 0 0 0.000273171
0 -9.01903e-05 0 16.6 0 0.000561317 0 -0.00020793 0.000866038 -0.0029593
-0.000361983 0.00119244 -0.00295929 -0.000526458 0.00154751 0 -0.000722231 0.00193963 0.0118546 -0.000929081
0.00237758 0.0185894 -0.00111632 0.00287168 0.00209831 -0.00136191 0.00343382 -0.0113371 -0.00161603 0.00407698
-0.0197596 -0.00184881 0.00481661 -0.0271461 -0.00212145 0.00567123 -0.0325521 -0.00239409 0.00666114 -0.0197443
-0.00265238 0.00781034 0.00532016 -0.00295528 0.00914572 0.0104037 -0.00324715 0.0106981 0.0188086 -0.00350807
0.0125083 0.0255918 -0.00377133 0.0146204 0.0348544 -0.00400731 0.0170856 0.0413692 -0.00422304 0.0199687
0.0139253 -0.00439954 0.0233376 -0.00621894 -0.00457516 0.0272761 -0.00284172 -0.00475048 0.0318875 -0.00297807
-0.00492468 0.0372812 0.0291564 -0.00507559 0.043581 0.0719513 -0.00523853 0.0508742 0.0778624 -0.00555528
0.0590339 0.0700149 -0.00599293 0.0679995 0.0715167 -0.00650541 0.0777727 0.0604663 -0.00711402 0.088373
0.0649763 -0.00767406 0.0998671 0.0714451 -0.00827119 0.112246 0.0740128 -0.00904001 0.125366 0.0737904
-0.00971646 0.13915 0.0877094 -0.0103703 0.153689 0.104158 -0.0109748 0.169075 0.068943 -0.0111675
0.18517 0.0885661 -0.0115611 0.201758 0.11572 -0.0118918 0.218871 0.0893175 -0.0118737 0.236556
0.0908602 -0.0120943 0.254906 0.115669 -0.0122379 0.273837 0.0903575 -0.0119781 0.293129 0.0682518
-0.011891 0.312578 0.103923 -0.0118541 0.332105 0.10639 -0.0115629 0.35179 0.0887053 -0.0112405
0.371683 0.0997208 -0.0109414 0.391852 0.102002 -0.0105777 0.412204 0.105722 -0.0103481 0.432328
0.127197 -0.00946602 0.452425 0.137136 -0.00867832 0.472666 0.125158 -0.00824394 0.492808 0.106125
-0.00793555 0.512671 0.0936954 -0.00689336 0.532159 0.102565 -0.00527634 0.551432 0.115645 -0.00455953
0.570467 0.121298 -0.00412274 0.589402 0.12429 -0.00385205 0.608348 0.129149 -0.00266734 0.000284645
0 -0.000148242 0 16.6 0 0.000575613 0 -0.000328341 0.000880484 0
-0.000524138 0.00120645 0 -0.000728116 0.0015609 0 -0.000990154 0.00195225 0.0118547 -0.00126414
0.0023895 0.026799 -0.00152875 0.00288302 0.0185761 -0.00184671 0.00344427 0.00613733 -0.00218322 0.00408707
0.00217242 -0.00252022 0.00482701 -0.0132256 -0.00287584 0.00568112 -0.0237172 -0.00325505 0.00666988 -0.0171747
-0.00364577 0.00781763 0.00126001 -0.00408469 0.0091516 0.01411 -0.0045341 0.0107031 0.0107819 -0.00497899
0.0125117 0.0134231 -0.00546959 0.0146209 0.0236109 -0.00600269 0.017082 0.0431207 -0.00662303 0.0199566
0.0228964 -0.00730632 0.023316 -0.0108966 -0.00799516 0.0272463 0.00539289 -0.00864251 0.0318454 0.00788988
-0.00928499 0.0372219 0.0198849 -0.00984203 0.0434972 0.0583011 -0.0102615 0.0507547 0.0639423 -0.0107596
0.0588637 0.0409723 -0.0113988 0.0677461 0.048156 -0.0119198 0.0774221 0.0514679 -0.012412 0.0879235
0.042944 -0.0127776 0.099289 0.0507032 -0.0131716 0.111521 0.0483197 -0.0138665 0.124512 0.0537234
-0.0144398 0.138166 0.076862 -0.0150532 0.152572 0.0853836 -0.0156791 0.167819 0.0669538 -0.0160833
0.183761 0.0894499 -0.0165773 0.200199 0.105631 -0.0171285 0.217177 0.0731066 -0.0176252 0.234733
0.0783314 -0.0179746 0.252933 0.0966573 -0.018195 0.27173 0.0843768 -0.0186978 0.290906 0.0845987
-0.0184092 0.310258 0.108713 -0.0182253 0.329698 0.108586 -0.0190248 0.349263 0.0940149 -0.017925
0.369085 0.110267 -0.0169258 0.389208 0.103855 -0.0163644 0.409502 0.0809044 -0.0154691 0.429658
0.1189 -0.0132563 0.449811 0.144703 -0.0113749 0.470078 0.119808 -0.0120335 0.490194 0.102379
-0.0114881 0.510046 0.0872925 -0.00989152 0.529593 0.0777505 -0.00873876 0.548888 0.0881446 -0.00833148
0.567982 0.113579 -0.00682236 0.587016 0.136284 -0.00539443 0.605878 0.141499 -0.00447461 0.00028935
0 -0.000210591 0 16.6 0 0.000583969 0 -0.000468516 0.000891585 0
-0.00075627 0.00121966 0 -0.00104335 0.00157607 0 -0.00135913 0.00196916 0 -0.00169243
0.00240796 0.00820955 -0.00205471 0.00290314 0.0329366 -0.00246832 0.00346655 0.0463614 -0.00289708 0.00411146
0.0409972 -0.00334563 0.00485319 0.0186448 -0.00382543 0.00570924 0.00850664 -0.004309 0.00670081 -0.00241271
-0.00483521 0.0078511 -0.0159312 -0.00538769 0.00918683 0.00757046 -0.00597343 0.0107414 0.0182535 -0.00658131
0.0125523 0.0122549 -0.00722773 0.0146641 -0.00417713 -0.00796641 0.0171267 0.0046636 -0.00870402 0.0199991
0.0232217 -0.00954312 0.0233567 0.00531935 -0.0105177 0.0272839 0.00982817 -0.0113534 0.0318733 0.0229901
-0.0120781 0.0372252 0.0327165 -0.0128094 0.0434517 0.047147 -0.0133498 0.0506302 0.0506291 -0.0138936
0.0586425 0.0336321 -0.0146255 0.0674154 0.035487 -0.0152883 0.0769771 0.0355573 -0.016237 0.087368
0.0231129 -0.017118 0.0986172 0.0386126 -0.0180228 0.110734 0.0359182 -0.0192497 0.123602 0.0455958
-0.0203452 0.137105 0.0638439 -0.0213953 0.151365 0.0746629 -0.0222099 0.166467 0.0860157 -0.0230669
0.182265 0.0860885 -0.0237695 0.198594 0.0815695 -0.0241766 0.215461 0.0679539 -0.0251827 0.232918
0.0722575 -0.025633 0.251022 0.0761111 -0.0249835 0.269727 0.0756055 -0.0258264 0.288818 0.0945522
-0.0249874 0.308068 0.0985038 -0.0241345 0.32742 0.108364 -0.0265115 0.3469 0.107535 -0.0247241
0.366645 0.098028 -0.0213047 0.386734 0.0974193 -0.0202394 0.406959 0.102441 -0.0198917 0.427145
0.126115 -0.0182112 0.447326 0.113076 -0.0174011 0.467568 0.0893751 -0.018647 0.487734 0.0897968
-0.0162439 0.5076 0.10048 -0.0136424 0.527252 0.0907204 -0.0130065 0.54668 0.0917749 -0.0117863
0.565898 0.124786 -0.0115547 0.585109 0.13427 -0.00949873 0.604174 0.125089 -0.00587387 0.000291022
0 -0.000286671 0 16.6 0 0.000587633 0 -0.000600374 0.000897405 0
-0.000962179 0.00122762 0 -0.00134783 0.00158629 0 -0.00172001 0.00198168 0 -0.00212882
0.00242287 0 -0.00258151 0.00292053 0.0184141 -0.00307739 0.0034866 0.0423266 -0.00360012 0.00413428
0.0476446 -0.00413472 0.00487895 0.0404457 -0.00471757 0.00573834 0.0381517 -0.0053202 0.00673318 0.028142
-0.00596726 0.00788714 0.0104769 -0.00665014 0.00922694 0.0108996 -0.00733656 0.0107856 0.0200105 -0.00808683
0.0125991 0.000665214 -0.00888929 0.0147126 -0.0320554 -0.00980136 0.0171777 -0.0310311 -0.0106552 0.0200503
0.00240907 -0.0117573 0.023402 0.0222111 -0.0130391 0.0273152 0.0204312 -0.0140224 0.0318742 0.0439004
-0.0147932 0.0371754 0.0658485 -0.0155353 0.043333 0.0488928 -0.0163869 0.0504164 0.0246515 -0.0171996
0.0583251 0.0225646 -0.0182014 0.06701 0.0245244 -0.0192781 0.0764894 0.0246563 -0.020436 0.0867978
0.0358758 -0.0215791 0.0979641 0.0449347 -0.0230031 0.109967 0.0481964 -0.0246951 0.122694 0.0645994
-0.0261875 0.136059 0.0721924 -0.0275304 0.150163 0.0695128 -0.0285226 0.165113 0.0860627 -0.0294227
0.180766 0.0834686 -0.0301308 0.196944 0.0628058 -0.0311783 0.213646 0.0687703 -0.0326639 0.230934
0.0752454 -0.0331721 0.248898 0.0687138 -0.0320294 0.267441 0.0628599 -0.0318914 0.286361 0.0865327
-0.0305942 0.305456 0.0905248 -0.0303259 0.324666 0.0982963 -0.0324928 0.344021 0.117536 -0.0320618
0.363618 0.0868142 -0.0286419 0.383584 0.0860086 -0.0275616 0.403695 0.115755 -0.0276798 0.423773
0.125315 -0.026552 0.443854 0.10574 -0.0273021 0.463987 0.0875038 -0.0265735 0.484088 0.111474
-0.0222801 0.503966 0.126608 -0.0190382 0.523652 0.104682 -0.0191087 0.543026 0.107716 -0.0179065
0.562203 0.126757 -0.0186614 0.581419 0.113651 -0.0165174 0.600472 0.0910962 -0.0115437 0.000291793
0 -0.000361291 0 16.6 0 0.000589337 0 -0.000739141 0.000900379 0
-0.0011475 0.0012322 0 -0.00159329 0.00159247 0 -0.00206876 0.00198952 0 -0.00258084
0.00243281 0 -0.00311178 0.00293284 0.0019553 -0.00370125 0.00350128 0.0281304 -0.00432695 0.0041514
0.0460198 -0.00496557 0.00489936 0.0396923 -0.0056234 0.00576219 0.0409638 -0.00632407 0.00675957 0.04378
-0.00709109 0.00791669 0.0407549 -0.00787477 0.00926047 0.0245889 -0.00868429 0.0108227 0.0257894 -0.00957771
0.012639 0.00464772 -0.0105575 0.0147535 -0.0342928 -0.0114789 0.0172183 -0.0328573 -0.0125746 0.0200893
-0.015343 -0.0140068 0.0234325 0.0166632 -0.0151117 0.027325 0.0341138 -0.015999 0.0318499 0.0341188
-0.0169923 0.0371072 0.0401536 -0.0178238 0.0432129 0.0295122 -0.0187931 0.0502349 0.00866828 -0.0199841
0.0580754 0.0229154 -0.0212046 0.0666786 0.0530983 -0.0226299 0.0760611 0.0357372 -0.0242226 0.0862556
0.0159987 -0.0259909 0.0972766 0.037457 -0.0280375 0.109125 0.0575603 -0.0301712 0.121698 0.0802093
-0.0319625 0.13491 0.0925947 -0.0334855 0.148858 0.0802784 -0.0350488 0.163646 0.0752875 -0.0359468
0.179131 0.0837403 -0.0365207 0.195106 0.0834196 -0.0379555 0.211586 0.0853155 -0.0400899 0.228662
0.0782143 -0.040246 0.246415 0.0525371 -0.0400775 0.264719 0.0660452 -0.0403847 0.283385 0.0887456
-0.0387453 0.302251 0.0871802 -0.0391872 0.321226 0.1031 -0.0389536 0.340359 0.0924595 -0.0386707
0.35974 0.0816097 -0.0390183 0.379462 0.0943503 -0.039829 0.399359 0.106469 -0.0393586 0.419252
0.119819 -0.0369292 0.439161 0.0987747 -0.0352946 0.459162 0.102175 -0.0344789 0.479061 0.138797
-0.0307413 0.498801 0.119321 -0.0277169 0.518319 0.0789499 -0.0290077 0.537524 0.101801 -0.0271358
0.556659 0.134066 -0.0249186 0.575768 0.123488 -0.0218921 0.594756 0.10628 -0.0195836 0.000292332
0 -0.000414945 0 16.6 0 0.000590493 0 -0.0008642 0.000902398 0
-0.00133962 0.0012353 0 -0.00184528 0.00159672 0 -0.00239955 0.00199504 0 -0.00299905
0.00243978 0 -0.00360906 0.00294154 0 -0.00429216 0.00351204 0.0180428 -0.00501452 0.0041645
0.0415296 -0.00575148 0.00491496 0.0452084 -0.00650743 0.00578005 0.0412333 -0.00729496 0.00678 0.0397854
-0.00816121 0.00793982 0.037652 -0.00908077 0.00928586 0.0370393 -0.0100077 0.0108503 0.0259871 -0.0110635
0.0126694 0.00766205 -0.0120672 0.0147861 0.00195223 -0.0129411 0.0172487 -0.0121093 -0.0142883 0.0201148
-0.0220956 -0.015935 0.0234506 0.00234839 -0.0170131 0.0273266 0.0246173 -0.0178366 0.0318282 0.0239485
-0.0189959 0.0370564 0.00714032 -0.020106 0.0431198 -0.00319925 -0.0211431 0.0500922 0.0178825 -0.0224274
0.0578749 0.041883 -0.0237634 0.0663923 0.0514234 -0.025459 0.075646 0.0214896 -0.0278918 0.0856899
-0.00543024 -0.0305332 0.0965595 0.025929 -0.0330315 0.108262 0.0520407 -0.0355088 0.120678 0.0649891
-0.0376381 0.133726 0.0773085 -0.0394006 0.147497 0.0792287 -0.0422513 0.162054 0.0646013 -0.0439073
0.177303 0.0642931 -0.0443414 0.193037 0.081802 -0.0454581 0.209259 0.0812624 -0.0471189 0.226056
0.0720696 -0.0479512 0.243496 0.0584876 -0.0488754 0.261482 0.0701964 -0.0486722 0.279822 0.0946431
-0.0471229 0.298349 0.0918624 -0.0491898 0.316966 0.0878718 -0.0493023 0.335744 0.0733931 -0.0467057
0.354783 0.0927904 -0.0483679 0.374167 0.100304 -0.0505179 0.393723 0.0874425 -0.0493324 0.413201
0.101125 -0.0458285 0.432739 0.0942583 -0.0418193 0.452422 0.114084 -0.0421827 0.47199 0.124893
-0.0405125 0.491387 0.107751 -0.0385815 0.510542 0.0850646 -0.0385723 0.529441 0.101958 -0.035841
0.548285 0.13043 -0.0333988 0.56715 0.130162 -0.0308526 0.585954 0.130282 -0.0292019 0.000292943
0 -0.00046178 0 16.6 0 0.000591809 0 -0.000980041 0.00090444 0
-0.00153915 0.00123799 0 -0.00211224 0.00160023 0 -0.00273484 0.00199973 0 -0.00341534
0.0024457 0 -0.00410562 0.00294864 0 -0.00485301 0.00352058 0.00345786 -0.00565655 0.00417497
0.0316267 -0.00647273 0.00492697 0.0501207 -0.00731875 0.00579451 0.0380271 -0.0082219 0.00679729 0.0356057
-0.00917629 0.00795951 0.0387773 -0.0101271 0.00930717 0.038643 -0.0111325 0.0108728 0.00892219 -0.0123176
0.0126939 -0.0087246 -0.0133699 0.0148113 0.025267 -0.0144589 0.0172733 0.0300635 -0.0157508 0.0201385
0.0157606 -0.0172682 0.0234686 0.0169644 -0.0186621 0.0273336 0.0226668 -0.0196607 0.0318233 0.0340433
-0.0207074 0.0370324 0.0256669 -0.0219485 0.0430614 0.0215479 -0.0232239 0.0499876 0.0410415 -0.0245398
0.0577051 0.0399244 -0.0264767 0.0661258 0.0284849 -0.0287448 0.0752564 0.0325432 -0.0315429 0.0851536
0.0451197 -0.0347218 0.0958851 0.067087 -0.0376225 0.107438 0.0728908 -0.0404884 0.119679 0.0772325
-0.0431354 0.132547 0.0653928 -0.0454454 0.146114 0.05517 -0.0482016 0.160439 0.0486618 -0.0509814
0.175424 0.0422617 -0.0519745 0.190866 0.0490013 -0.0527719 0.206779 0.0499847 -0.0547618 0.223247
0.0630784 -0.0570868 0.240316 0.0763731 -0.0589405 0.257895 0.0821134 -0.0577255 0.275811 0.0976808
-0.056675 0.293902 0.0969726 -0.059018 0.312075 0.0699724 -0.0609275 0.330384 0.075797 -0.0610004
0.348939 0.104794 -0.0603659 0.367822 0.0991426 -0.0604934 0.386912 0.0850239 -0.0585522 0.405854
0.0882304 -0.0558427 0.4248 0.0989405 -0.0561669 0.443937 0.10053 -0.055183 0.46302 0.102068
-0.0529955 0.481915 0.121586 -0.0512338 0.500599 0.11547 -0.0492001 0.519067 0.102514 -0.0469439
0.537397 0.11612 -0.0461623 0.555734 0.12811 -0.0455363 0.574073 0.12947 -0.0426939 0.000293562
0 -0.000512968 0 16.6 0 0.000593165 0 -0.00108902 0.000906615 0
-0.00169349 0.00124091 0 -0.0023237 0.00160397 0 -0.00303272 0.0020045 0 -0.00379104
0.00245167 0 -0.00455349 0.00295588 0 -0.00536809 0.00352923 0 -0.00625488 0.00418521
0.0177403 -0.00716925 0.0049387 0.0410507 -0.00810204 0.00580839 0.0445098 -0.00907062 0.00681406 0.0389868
-0.0101014 0.00797865 0.0373134 -0.0111311 0.00932893 0.0365971 -0.0122593 0.0108972 0.0102187 -0.0134845
0.0127206 -0.010018 -0.0146774 0.0148389 0.0128705 -0.0158646 0.0173018 0.0386761 -0.0171621 0.0201678
0.0484659 -0.018598 0.023498 0.0458371 -0.0200166 0.0273631 0.0471126 -0.0212036 0.0318489 0.0463963
-0.0222496 0.0370486 0.0374008 -0.0234576 0.043059 0.0492987 -0.0247443 0.0499488 0.0607829 -0.0264009
0.0576018 0.0367227 -0.0289676 0.0659264 0.0282936 -0.0319064 0.0749531 0.0423827 -0.0352636 0.084735
0.0566916 -0.0388332 0.0953318 0.0856174 -0.0419227 0.10674 0.0838604 -0.0450921 0.118817 0.0721762
-0.0484412 0.131495 0.0604861 -0.0510988 0.14485 0.0388751 -0.0539045 0.158932 0.0285448 -0.0575914
0.173636 0.0414035 -0.0586814 0.188763 0.0532522 -0.0595445 0.204323 0.0534577 -0.0633771 0.220419
0.0644583 -0.0653392 0.237069 0.0619925 -0.0669216 0.254179 0.0709664 -0.0681499 0.2716 0.0832168
-0.0682759 0.289162 0.0729185 -0.0692834 0.306778 0.0800465 -0.0707495 0.324506 0.0904159 -0.0730775
0.342436 0.0890157 -0.0742833 0.360643 0.0880608 -0.0714519 0.379046 0.0888163 -0.0681351 0.397357
0.0992334 -0.0687048 0.415595 0.110764 -0.071238 0.433935 0.0993145 -0.0717262 0.452298 0.0954261
-0.0699181 0.470527 0.10506 -0.0675587 0.488512 0.110638 -0.0644075 0.506275 0.111602 -0.0614271
0.523953 0.118048 -0.0619072 0.541532 0.117022 -0.0621546 0.559151 0.106899 -0.0575988 0.000294267
0 -0.000556459 0 16.6 0 0.000594628 0 -0.00116503 0.000908938 0
-0.00181446 0.00124426 0 -0.00251763 0.00160846 0 -0.00330634 0.00201022 0 -0.00413936
0.00245886 0 -0.00496534 0.00296482 0 -0.00586089 0.00354006 0 -0.00682074 0.00419803
0.00407844 -0.00779026 0.00495399 0.0310232 -0.00881914 0.00582582 0.0499137 -0.00982857 0.00683435 0.0421631
-0.0109413 0.00800258 0.0369876 -0.0121611 0.00935733 0.0335271 -0.0133044 0.0109302 0.0159691 -0.014529
0.012757 -0.0055944 -0.0157819 0.0148792 -0.00499427 -0.0171587 0.0173478 0.0066479 -0.0185748 0.0202183
0.029714 -0.0198128 0.0235546 0.040609 -0.0211516 0.0274296 0.0461145 -0.0224389 0.031922 0.0450252
-0.0235974 0.0371224 0.0224128 -0.0249397 0.0431276 0.0289805 -0.0263842 0.0499983 0.0454293 -0.0284307
0.0576054 0.0237788 -0.0313227 0.0658709 0.0204708 -0.0346105 0.0748225 0.0428403 -0.0384361 0.084514
0.0451672 -0.0422347 0.0950006 0.0537389 -0.0455767 0.106275 0.048413 -0.0490616 0.118207 0.0557626
-0.0526326 0.130711 0.065674 -0.055439 0.143866 0.0299098 -0.0588732 0.157707 0.0146242 -0.0634976
0.172139 0.0368127 -0.0656351 0.186981 0.0598097 -0.0667887 0.202206 0.0638269 -0.0711591 0.217897
0.0616841 -0.0733675 0.234111 0.0546858 -0.0748377 0.250756 0.0464088 -0.0778767 0.267658 0.0729456
-0.0797334 0.284634 0.087344 -0.081362 0.301611 0.0974067 -0.0827526 0.31868 0.105089 -0.0832075
0.335925 0.0958331 -0.0854708 0.353375 0.100804 -0.0861079 0.370931 0.0946688 -0.0857913 0.388446
0.0954505 -0.0854413 0.405897 0.109261 -0.0843979 0.423359 0.104387 -0.0864894 0.440847 0.103855
-0.0855831 0.45818 0.122181 -0.0836671 0.475212 0.127934 -0.082999 0.492034 0.128648 -0.0808518
0.508767 0.128082 -0.0791584 0.525361 0.130189 -0.0791478 0.542176 0.125809 -0.0763703 0.000295018
0 -0.000582881 0 16.6 0 0.000596259 0 -0.00122541 0.000911595 0
-0.00192272 0.0012482 0 -0.00269651 0.0016138 0 -0.00354394 0.00201718 0 -0.00442242
0.00246787 0 -0.00532836 0.00297609 0 -0.00628684 0.00355389 0 -0.00729399 0.00421478
0 -0.00832702 0.00497416 0.018448 -0.00938504 0.00584992 0.0411726 -0.010458 0.0068627 0.0455044
-0.0116198 0.00803543 0.0441927 -0.0127943 0.00939623 0.0410074 -0.0139964 0.0109757 0.0278138 -0.0153428
0.0128095 -0.00124756 -0.0166347 0.0149408 -0.0188305 -0.018123 0.017419 -0.0116794 -0.0196049 0.0203012
0.00845123 -0.0208665 0.0236505 0.0194285 -0.0222301 0.0275411 0.0251556 -0.0234826 0.0320515 0.035304
-0.0247036 0.0372686 0.0183791 -0.0261893 0.0432808 0.0120949 -0.0276425 0.0501406 0.0299129 -0.0300238
0.0577267 0.0238401 -0.033437 0.0659714 0.0192519 -0.0369103 0.0748883 0.0293806 -0.040798 0.0845216
0.0216351 -0.0447943 0.0949276 0.02454 -0.0483633 0.106109 0.0261455 -0.0521287 0.11794 0.0432184
-0.0559682 0.130315 0.0648447 -0.0596056 0.143317 0.0319337 -0.0631054 0.156987 0.0242112 -0.0677504
0.1712 0.0506886 -0.0714877 0.185795 0.0587677 -0.0730717 0.200736 0.0575503 -0.0769703 0.216091
0.0492482 -0.0805855 0.231924 0.0406097 -0.0827457 0.248129 0.045162 -0.0862338 0.264527 0.060446
-0.0905109 0.280949 0.0799686 -0.0928545 0.297348 0.0987474 -0.0949042 0.313782 0.112588 -0.0965407
0.330326 0.121356 -0.0966028 0.347027 0.107934 -0.0995234 0.363772 0.107922 -0.101819 0.380424
0.106229 -0.101574 0.396982 0.103048 -0.101157 0.413553 0.107428 -0.100815 0.430088 0.118528
-0.101585 0.446376 0.157106 -0.101879 0.462391 0.147398 -0.101196 0.478178 0.129283 -0.0993042