# vtk DataFile Version 2.0
sampleSurface
ASCII
DATASET POLYDATA
POINTS 17673 float
0.04 -0.184464 -0.06 0.04 -0.184464 -0.0559273 0.04 -0.188453 -0.0559273 0.04 -0.188453
-0.06 0.04 -0.180475 -0.06 0.04 -0.180475 -0.0559273 0.04 -0.176486 -0.06
0.04 -0.176486 -0.0559273 0.04 -0.172497 -0.06 0.04 -0.172497 -0.0559273 0.04
-0.168508 -0.06 0.04 -0.168508 -0.0559273 0.04 -0.164519 -0.06 0.04 -0.164519
-0.0559273 0.04 -0.16053 -0.06 0.04 -0.16053 -0.0559273 0.04 -0.156541 -0.06
0.04 -0.156541 -0.0559273 0.04 -0.152552 -0.06 0.04 -0.152552 -0.0559273 0.04
-0.148563 -0.06 0.04 -0.148563 -0.0559273 0.04 -0.144574 -0.06 0.04 -0.144574
-0.0559273 0.04 -0.140586 -0.06 0.04 -0.140586 -0.0559273 0.04 -0.136596 -0.06
0.04 -0.136596 -0.0559273 0.04 -0.132607 -0.06 0.04 -0.132607 -0.0559273 0.04
-0.128619 -0.06 0.04 -0.128619 -0.0559273 0.04 -0.12463 -0.06 0.04 -0.12463
-0.0559273 0.04 -0.120641 -0.06 0.04 -0.120641 -0.0559273 0.04 -0.116652 -0.06
0.04 -0.116652 -0.0559273 0.04 -0.112663 -0.06 0.04 -0.112663 -0.0559273 0.04
-0.108674 -0.06 0.04 -0.108674 -0.0559273 0.04 -0.104685 -0.06 0.04 -0.104685
-0.0559273 0.04 -0.100696 -0.06 0.04 -0.100696 -0.0559273 0.04 -0.0967069 -0.06
0.04 -0.0967069 -0.0559273 0.04 -0.0927179 -0.06 0.04 -0.0927179 -0.0559273 0.04
-0.088739 -0.06 0.04 -0.0887391 -0.0559273 0.04 -0.0847775 -0.06 0.04 -0.0847775
-0.0559273 0.04 -0.0809835 -0.06 0.04 -0.0809835 -0.0559273 0.04 -0.0773956 -0.06
0.04 -0.0773956 -0.0559273 0.04 -0.0739968 -0.06 0.04 -0.0739968 -0.0559273 0.04
-0.0707629 -0.06 0.04 -0.0707629 -0.0559273 0.04 -0.0676784 -0.06 0.04 -0.0676784
-0.0559273 0.04 -0.0647301 -0.06 0.04 -0.0647301 -0.0559273 0.04 -0.0619431 -0.06
0.04 -0.0619431 -0.0559273 0.04 -0.0593321 -0.06 0.04 -0.0593321 -0.0559273 0.04
-0.0568459 -0.06 0.04 -0.0568459 -0.0559273 0.04 -0.0544545 -0.06 0.04 -0.0544545
-0.0559273 0.04 -0.0521732 -0.06 0.04 -0.0521732 -0.0559273 0.04 -0.0500374 -0.06
0.04 -0.0500374 -0.0559273 0.04 -0.0480123 -0.06 0.04 -0.0480123 -0.0559273 0.04
-0.046084 -0.06 0.04 -0.046084 -0.0559273 0.04 -0.0442254 -0.06 0.04 -0.0442254
-0.0559273 0.04 -0.0424486 -0.06 0.04 -0.0424486 -0.0559273 0.04 -0.0407648 -0.06
0.04 -0.0407648 -0.0559273 0.04 -0.0391821 -0.06 0.04 -0.0391821 -0.0559273 0.04
-0.0376993 -0.06 0.04 -0.0376993 -0.0559273 0.04 -0.0362943 -0.06 0.04 -0.0362943
-0.0559273 0.04 -0.0349524 -0.06 0.04 -0.0349524 -0.0559273 0.04 -0.0336651 -0.06
0.04 -0.0336651 -0.0559273 0.04 -0.0324289 -0.06 0.04 -0.0324289 -0.0559273 0.04
-0.0312728 -0.06 0.04 -0.0312728 -0.0559273 0.04 -0.0301752 -0.06 0.04 -0.0301752
-0.0559273 0.04 -0.0291177 -0.06 0.04 -0.0291177 -0.0559273 0.04 -0.0281145 -0.06
0.04 -0.0281145 -0.0559273 0.04 -0.0271661 -0.06 0.04 -0.0271661 -0.0559273 0.04
-0.0262754 -0.06 0.04 -0.0262754 -0.0559273 0.04 -0.02543 -0.06 0.04 -0.02543
-0.0559273 0.04 -0.0246256 -0.06 0.04 -0.0246256 -0.0559273 0.04 -0.0238573 -0.06
0.04 -0.0238573 -0.0559273 0.04 -0.023094 -0.0559273 0.04 -0.023094 -0.06 0.04
-0.184464 -0.0519514 0.04 -0.188453 -0.0519514 0.04 -0.180475 -0.0519514 0.04 -0.176486
-0.0519514 0.04 -0.172497 -0.0519514 0.04 -0.168508 -0.0519514 0.04 -0.164519 -0.0519514
0.04 -0.16053 -0.0519514 0.04 -0.156541 -0.0519514 0.04 -0.152552 -0.0519514 0.04
-0.148563 -0.0519514 0.04 -0.144574 -0.0519514 0.04 -0.140586 -0.0519514 0.04 -0.136596
-0.0519514 0.04 -0.132607 -0.0519514 0.04 -0.128619 -0.0519514 0.04 -0.12463 -0.0519514
0.04 -0.120641 -0.0519514 0.04 -0.116652 -0.0519514 0.04 -0.112663 -0.0519514 0.04
-0.108674 -0.0519514 0.04 -0.104685 -0.0519514 0.04 -0.100696 -0.0519514 0.04 -0.0967069
-0.0519514 0.04 -0.0927179 -0.0519514 0.04 -0.088739 -0.0519514 0.04 -0.0847775 -0.0519514
0.04 -0.0809835 -0.0519514 0.04 -0.0773956 -0.0519514 0.04 -0.0739968 -0.0519514 0.04
-0.0707629 -0.0519514 0.04 -0.0676784 -0.0519514 0.04 -0.0647301 -0.0519514 0.04 -0.0619431
-0.0519514 0.04 -0.0593321 -0.0519514 0.04 -0.0568459 -0.0519514 0.04 -0.0544545 -0.0519514
0.04 -0.0521732 -0.0519514 0.04 -0.0500374 -0.0519514 0.04 -0.0480123 -0.0519514 0.04
-0.046084 -0.0519514 0.04 -0.0442254 -0.0519514 0.04 -0.0424486 -0.0519514 0.04 -0.0407648
-0.0519514 0.04 -0.0391821 -0.0519514 0.04 -0.0376993 -0.0519514 0.04 -0.0362943 -0.0519514
0.04 -0.0349524 -0.0519514 0.04 -0.0336651 -0.0519514 0.04 -0.0324289 -0.0519514 0.04
-0.0312728 -0.0519514 0.04 -0.0301752 -0.0519514 0.04 -0.0291177 -0.0519514 0.04 -0.0281145
-0.0519514 0.04 -0.0271661 -0.0519514 0.04 -0.0262754 -0.0519514 0.04 -0.02543 -0.0519514
0.04 -0.0246256 -0.0519514 0.04 -0.0238573 -0.0519514 0.04 -0.023094 -0.0519514 0.04
-0.184464 -0.0479754 0.04 -0.188453 -0.0479754 0.04 -0.180475 -0.0479754 0.04 -0.176486
-0.0479754 0.04 -0.172497 -0.0479754 0.04 -0.168508 -0.0479754 0.04 -0.164519 -0.0479754
0.04 -0.16053 -0.0479754 0.04 -0.156541 -0.0479754 0.04 -0.152552 -0.0479754 0.04
-0.148563 -0.0479754 0.04 -0.144574 -0.0479754 0.04 -0.140586 -0.0479754 0.04 -0.136596
-0.0479754 0.04 -0.132607 -0.0479754 0.04 -0.128619 -0.0479754 0.04 -0.12463 -0.0479754
0.04 -0.120641 -0.0479754 0.04 -0.116652 -0.0479754 0.04 -0.112663 -0.0479754 0.04
-0.108674 -0.0479754 0.04 -0.104685 -0.0479754 0.04 -0.100696 -0.0479754 0.04 -0.0967069
-0.0479754 0.04 -0.0927179 -0.0479754 0.04 -0.0887391 -0.0479754 0.04 -0.0847775 -0.0479754
0.04 -0.0809835 -0.0479754 0.04 -0.0773956 -0.0479754 0.04 -0.0739968 -0.0479754 0.04
-0.0707629 -0.0479754 0.04 -0.0676784 -0.0479754 0.04 -0.0647301 -0.0479754 0.04 -0.0619431
-0.0479754 0.04 -0.0593321 -0.0479754 0.04 -0.0568459 -0.0479754 0.04 -0.0544545 -0.0479754
0.04 -0.0521732 -0.0479754 0.04 -0.0500374 -0.0479754 0.04 -0.0480123 -0.0479754 0.04
-0.046084 -0.0479754 0.04 -0.0442254 -0.0479754 0.04 -0.0424486 -0.0479754 0.04 -0.0407648
-0.0479754 0.04 -0.0391821 -0.0479754 0.04 -0.0376993 -0.0479754 0.04 -0.0362943 -0.0479754
0.04 -0.0349524 -0.0479754 0.04 -0.0336651 -0.0479754 0.04 -0.0324289 -0.0479754 0.04
-0.0312728 -0.0479754 0.04 -0.0301752 -0.0479754 0.04 -0.0291177 -0.0479754 0.04 -0.0281145
-0.0479754 0.04 -0.0271661 -0.0479754 0.04 -0.0262754 -0.0479754 0.04 -0.02543 -0.0479754
0.04 -0.0246256 -0.0479754 0.04 -0.0238573 -0.0479754 0.04 -0.023094 -0.0479754 0.04
-0.184464 -0.0439994 0.04 -0.188453 -0.0439994 0.04 -0.180475 -0.0439994 0.04 -0.176486
-0.0439994 0.04 -0.172497 -0.0439994 0.04 -0.168508 -0.0439994 0.04 -0.164519 -0.0439994
0.04 -0.16053 -0.0439994 0.04 -0.156541 -0.0439994 0.04 -0.152552 -0.0439994 0.04
-0.148563 -0.0439994 0.04 -0.144574 -0.0439994 0.04 -0.140586 -0.0439994 0.04 -0.136596
-0.0439994 0.04 -0.132607 -0.0439994 0.04 -0.128619 -0.0439994 0.04 -0.12463 -0.0439994
0.04 -0.120641 -0.0439994 0.04 -0.116652 -0.0439994 0.04 -0.112663 -0.0439994 0.04
-0.108674 -0.0439994 0.04 -0.104685 -0.0439994 0.04 -0.100696 -0.0439994 0.04 -0.0967069
-0.0439994 0.04 -0.0927179 -0.0439994 0.04 -0.0887391 -0.0439994 0.04 -0.0847775 -0.0439994
0.04 -0.0809835 -0.0439994 0.04 -0.0773956 -0.0439994 0.04 -0.0739968 -0.0439994 0.04
-0.0707629 -0.0439994 0.04 -0.0676784 -0.0439994 0.04 -0.0647301 -0.0439994 0.04 -0.0619431
-0.0439994 0.04 -0.0593321 -0.0439994 0.04 -0.0568459 -0.0439994 0.04 -0.0544545 -0.0439994
0.04 -0.0521732 -0.0439994 0.04 -0.0500374 -0.0439994 0.04 -0.0480123 -0.0439994 0.04
-0.046084 -0.0439994 0.04 -0.0442254 -0.0439994 0.04 -0.0424486 -0.0439994 0.04 -0.0407648
-0.0439994 0.04 -0.0391821 -0.0439994 0.04 -0.0376993 -0.0439994 0.04 -0.0362943 -0.0439994
0.04 -0.0349524 -0.0439994 0.04 -0.0336651 -0.0439994 0.04 -0.0324289 -0.0439994 0.04
-0.0312728 -0.0439994 0.04 -0.0301752 -0.0439994 0.04 -0.0291177 -0.0439994 0.04 -0.0281145
-0.0439994 0.04 -0.0271661 -0.0439994 0.04 -0.0262754 -0.0439994 0.04 -0.02543 -0.0439994
0.04 -0.0246256 -0.0439994 0.04 -0.0238573 -0.0439994 0.04 -0.023094 -0.0439994 0.04
-0.184464 -0.0400235 0.04 -0.188453 -0.0400235 0.04 -0.180475 -0.0400235 0.04 -0.176486
-0.0400235 0.04 -0.172497 -0.0400235 0.04 -0.168508 -0.0400235 0.04 -0.164519 -0.0400235
0.04 -0.16053 -0.0400235 0.04 -0.156541 -0.0400235 0.04 -0.152552 -0.0400235 0.04
-0.148563 -0.0400235 0.04 -0.144574 -0.0400235 0.04 -0.140586 -0.0400235 0.04 -0.136596
-0.0400235 0.04 -0.132607 -0.0400235 0.04 -0.128619 -0.0400235 0.04 -0.12463 -0.0400235
0.04 -0.120641 -0.0400235 0.04 -0.116652 -0.0400235 0.04 -0.112663 -0.0400235 0.04
-0.108674 -0.0400235 0.04 -0.104685 -0.0400235 0.04 -0.100696 -0.0400235 0.04 -0.0967069
-0.0400235 0.04 -0.0927179 -0.0400235 0.04 -0.088739 -0.0400235 0.04 -0.0847775 -0.0400235
0.04 -0.0809835 -0.0400235 0.04 -0.0773956 -0.0400235 0.04 -0.0739968 -0.0400235 0.04
-0.0707629 -0.0400235 0.04 -0.0676784 -0.0400235 0.04 -0.0647301 -0.0400235 0.04 -0.0619431
-0.0400235 0.04 -0.0593321 -0.0400235 0.04 -0.0568459 -0.0400235 0.04 -0.0544545 -0.0400235
0.04 -0.0521732 -0.0400235 0.04 -0.0500374 -0.0400235 0.04 -0.0480123 -0.0400235 0.04
-0.046084 -0.0400235 0.04 -0.0442254 -0.0400235 0.04 -0.0424486 -0.0400235 0.04 -0.0407648
-0.0400235 0.04 -0.0391821 -0.0400235 0.04 -0.0376993 -0.0400235 0.04 -0.0362943 -0.0400235
0.04 -0.0349524 -0.0400235 0.04 -0.0336651 -0.0400235 0.04 -0.0324289 -0.0400235 0.04
-0.0312728 -0.0400235 0.04 -0.0301752 -0.0400235 0.04 -0.0291177 -0.0400235 0.04 -0.0281145
-0.0400235 0.04 -0.0271661 -0.0400235 0.04 -0.0262754 -0.0400235 0.04 -0.02543 -0.0400235
0.04 -0.0246256 -0.0400235 0.04 -0.0238573 -0.0400235 0.04 -0.023094 -0.0400235 0.04
-0.184464 -0.0360475 0.04 -0.188453 -0.0360475 0.04 -0.180475 -0.0360475 0.04 -0.176486
-0.0360475 0.04 -0.172497 -0.0360475 0.04 -0.168508 -0.0360475 0.04 -0.164519 -0.0360475
0.04 -0.16053 -0.0360475 0.04 -0.156541 -0.0360475 0.04 -0.152552 -0.0360475 0.04
-0.148563 -0.0360475 0.04 -0.144574 -0.0360475 0.04 -0.140586 -0.0360475 0.04 -0.136596
-0.0360475 0.04 -0.132607 -0.0360475 0.04 -0.128619 -0.0360475 0.04 -0.12463 -0.0360475
0.04 -0.120641 -0.0360475 0.04 -0.116652 -0.0360475 0.04 -0.112663 -0.0360475 0.04
-0.108674 -0.0360475 0.04 -0.104685 -0.0360475 0.04 -0.100696 -0.0360475 0.04 -0.0967069
[...]
POINT_DATA 17673
FIELD attributes 1
Mode9 3 17673 float
0 0 0 8.92157e-05 0 -0.000320457 0 16.6 0 0 8.25622
0 0 0 0 0.000184274 0 -0.000713554 0 0 0
0.000285783 0.00599752 -0.00103264 0 0 0 0.000395776 0.110144 -0.00127876 0
0 0 0.000516865 0.104146 -0.00150049 0 0 0 0.000652199 -0.0202059
-0.00165701 0 0 0 0.000805438 -0.020206 -0.00168424 0 0 0
0.000980852 -0.0242516 -0.00175799 0 0 0 0.00118341 -0.0691502 -0.00186305 0
0 0 0.001418 -0.0943923 -0.00191218 0 0 0 0.00169166 -0.0985494
-0.00188507 0 0 0 0.00201244 -0.146595 -0.00166806 0 0 0
0.00238724 -0.070887 -0.00155044 0 0 0 0.00282657 -0.0203359 -0.0014773 0
0 0 0.00334304 -0.0339323 -0.00123318 0 0 0 0.00395065 -0.0242514
-0.000972013 0 0 0 0.00466671 0.0519355 -0.000622372 0 0 0
0.00550812 0.16591 -5.65236e-05 0 0 0 0.00649802 0.2345 0.000955063 0
0 0 0.00766113 0.264503 0.00271532 0 0 0 0.0090302 0.0401367
0.0046929 0 0 0 0.0106424 -0.176614 0.00578198 0 0 0
0.0125359 -0.0932356 0.00536114 0 0 0 0.0147594 0.0153155 0.0031003 0
0 0 0.0173605 0.0221156 -0.000888954 0 0 0 0.0203811 0.0828454
-0.00601533 0 0 0 0.0237682 0.0389894 -0.0111135 0 0 0
0.0274847 0.0340114 -0.0149935 0 0 0 0.031561 0.148712 -0.0167209 0
0 0 0.0360087 0.155227 -0.0164243 0 0 0 0.0408243 0.0768078
-0.0146539 0 0 0 0.0460124 0.0325733 -0.012396 0 0 0
0.0515346 0.0233491 -0.0109222 0 0 0 0.0573487 0.0265123 -0.0102983 0
0 0 0.0634982 0.0472644 -0.0101579 0 0 0 0.0700017 -0.00673357
-0.0100799 0 0 0 0.0768109 0.0900048 -0.00903246 0 0 0
0.08385 0.178422 -0.00780448 0 0 0 0.0911062 0.0753137 -0.00755052 0
0 0 0.0986001 0.102593 -0.00700753 0 0 0 0.106344 0.119458
-0.00642294 0 0 0 0.114313 0.157045 -0.00606127 0 0 0
0.122403 0.2043 -0.00638936 0 0 0 0.130526 0.158839 -0.00659894 0
0 0 0.138659 0.0949265 -0.00631981 0 0 0 0.146803 0.0161369
-0.00686802 0 0 0 0.154956 0.0930212 -0.00723513 0 0 0
0.163136 0.146262 -0.00662381 0 0 0 0.171312 0.0800122 -0.00543528 0
0 0 0.179381 0.162976 -0.00572774 0 0 0 0.187308 0.223311
-0.00617179 0 0 0 0.195142 0.139736 -0.00543711 0 0 0
0.202872 0.0501356 -0.00561511 0 0 0 0.210384 -0.0368381 -0.0056577 0
0 0 0.217607 0.106686 -0.00514704 0 0 0 0.2246 0.256978
-0.00544374 0 0 0 0.23136 0.129234 -0.00528282 0 0 0
0.237936 0.115032 -0.00521789 0.244421 0.122939 -0.0054254 0 0 0 8.9508e-05
0 -0.000453033 0 16.6 0 0.000185451 0 -0.000965111 0.000288339 0.00597323
-0.00151207 0.000399943 0.00597322 -0.00189493 0.000522889 0 -0.00228201 0.000660219 -0.00295066 -0.00258602
0.000815237 0.0951845 -0.00269255 0.000992123 0.0777435 -0.00297085 0.00119604 -0.0563168 -0.0032813 0.0014315
-0.0993728 -0.00337501 0.00170499 -0.170861 -0.00342267 0.00202425 -0.189397 -0.00332066 0.00239668 -0.138595
-0.00327139 0.00283227 -0.0970847 -0.00336538 0.00334269 -0.0478377 -0.00328313 0.00394163 -0.00503543 -0.0032902
0.00464496 0.0611931 -0.0033964 0.00547002 0.176645 -0.00333959 0.00643952 0.266601 -0.00332187 0.00757729
0.180074 -0.00344942 0.00891353 -0.0559023 -0.00362283 0.010485 -0.137795 -0.00400594 0.0123259 -0.0759237
-0.00469362 0.0144848 0.0192082 -0.00568566 0.0170111 0.12863 -0.00678808 0.0199417 0.114407 -0.00819741
0.0232239 -0.00166658 -0.00981788 0.0268371 0.0261613 -0.0110065 0.0308009 0.0645121 -0.0115899 0.0351075
0.125033 -0.0115206 0.0397755 0.0794805 -0.0113529 0.0447954 0.0288713 -0.0116212 0.0501289 0.0182974
-0.013072 0.055757 0.0441592 -0.0152733 0.0616962 0.0676931 -0.016652 0.0679663 -0.00248736 -0.0166931
0.0745257 0.0851514 -0.0165172 0.0813009 0.0492005 -0.016692 0.0882934 -0.00709645 -0.0164776 0.0955127
0.157019 -0.0164124 0.10296 0.24797 -0.0167294 0.110619 0.145664 -0.0171322 0.118394 0.0317055
-0.017962 0.126205 0.0766999 -0.0190457 0.134021 0.153257 -0.0193909 0.141816 0.0800253 -0.0187898
0.149648 0.123497 -0.0191715 0.157496 0.178341 -0.0186599 0.16534 0.109061 -0.017191 0.173001
0.15905 -0.0166777 0.180518 0.206863 -0.0172913 0.188012 0.122487 -0.0169091 0.195395 0.0381897
-0.016088 0.202555 -0.0447581 -0.014915 0.209413 0.119482 -0.0129943 0.21607 0.279223 -0.0130575
0.222449 0.175765 -0.0131493 0.228677 0.0609334 -0.0149903 0.234814 0.0849895 -0.0206648 9.43472e-05
0 -0.000724458 0 16.6 0 0.000192552 0 -0.00139769 0.000297076 0
-0.00206913 0.000410327 0 -0.00255964 0.000535097 0 -0.00303469 0.000674239 -0.00295067 -0.00345246
0.00083121 0.0942769 -0.00361156 0.00101004 0.105179 -0.00392767 0.00121526 0.0444507 -0.00430312 0.00145194
0.0816462 -0.00439766 0.00172616 -0.0388005 -0.00437113 0.00204505 -0.167349 -0.00439124 0.00241735 -0.172637
-0.00442521 0.00285269 -0.167435 -0.00459653 0.00336158 -0.114506 -0.00468038 0.00395733 -0.0393794 -0.00477012
0.0046553 0.0228814 -0.00504254 0.00547362 0.0719582 -0.00533281 0.00643548 0.131399 -0.00591385 0.00756555
0.0652621 -0.00680783 0.00889068 -0.0199555 -0.00772538 0.0104459 0.0612056 -0.00854639 0.0122743 0.0296581
-0.00909376 0.0144198 0.00438275 -0.00922516 0.0169328 0.114093 -0.00884062 0.0198452 0.099775 -0.00858485
0.0231094 -0.013534 -0.00884926 0.0267028 0.017906 -0.00918771 0.0306339 0.0612195 -0.0100169 0.034912
-0.000448006 -0.0110024 0.0395356 -0.0343665 -0.0122524 0.0445116 0.0530912 -0.0151869 0.0498071 0.0305949
-0.0189068 0.0553819 0.0611021 -0.0220244 0.0612492 0.0807229 -0.0236128 0.0674305 -0.018595 -0.0249974
0.0738846 0.0593549 -0.0268549 0.0805261 0.0307145 -0.0288585 0.0873773 0.0761811 -0.0307269 0.0944614
0.210019 -0.0315763 0.101783 0.172231 -0.0323019 0.109305 0.0698939 -0.0330642 0.11695 -0.0437701
-0.0329133 0.124652 0.0881296 -0.0329126 0.132334 0.241507 -0.0323722 0.139984 0.169794 -0.0312404
0.147688 0.0892308 -0.0315354 0.15543 0.0186732 -0.0300621 0.163183 0.0918588 -0.028885 0.17082
0.235771 -0.0259409 0.178327 0.24257 -0.0244035 0.185758 0.162313 -0.0253216 0.19303 0.0829327
-0.0216303 0.20012 -0.0189169 -0.0135415 0.206955 0.113462 -0.0152882 0.213568 0.246521 -0.0249667
0.219943 0.115157 -0.0172427 0.226168 0.0858432 -0.0109721 0.232162 0.210551 -0.0229168 9.70146e-05
0 -0.00100181 0 16.6 0 0.000197612 0 -0.0019191 0.000304413 0
-0.00272686 0.000419789 0 -0.0033501 0.000546651 0 -0.00382137 0.000687829 0 -0.0041369
0.000846632 -0.00090773 -0.00436352 0.00102715 0.028851 -0.00467817 0.00123361 0.132817 -0.00492022 0.00147102
0.260284 -0.00499956 0.00174605 0.203999 -0.00506022 0.00206431 0.103238 -0.00505486 0.00243551 -0.0156804
-0.00513535 0.00287039 -0.149635 -0.00531584 0.00337592 -0.14639 -0.00542026 0.00396747 -0.097655 -0.0055232
0.00466202 -0.0311533 -0.00579882 0.00547448 -0.0107854 -0.00635524 0.00642824 0.00488504 -0.00709717 0.00754873
0.0556601 -0.00797592 0.00886297 0.0927598 -0.00910953 0.0104077 0.13269 -0.0101353 0.0122253 0.0941873
-0.0105899 0.0143575 0.0640941 -0.010356 0.0168593 0.0318375 -0.00977266 0.0197518 -0.00315804 -0.00971005
0.0229941 -0.0120481 -0.00998305 0.0265664 0.0191378 -0.0112493 0.030479 0.0364217 -0.0147725 0.0347434
-0.0594183 -0.0180145 0.0393286 -0.000160948 -0.0210678 0.044256 0.0862488 -0.0255959 0.0494731 0.046257
-0.0296325 0.0549428 0.0494772 -0.032785 0.0607017 0.043605 -0.0346729 0.0667642 0.0321973 -0.0372678
0.0731132 0.0934841 -0.0397288 0.079654 0.0383914 -0.0405837 0.0864011 0.103412 -0.0432256 0.0933779
0.174504 -0.0449633 0.100595 0.0379865 -0.0443665 0.108037 0.0357074 -0.044498 0.115611 0.0337126
-0.0435966 0.123231 0.0339186 -0.0431223 0.130851 0.153952 -0.0466562 0.138473 0.178029 -0.0409814
0.146158 0.0863881 -0.0346472 0.15391 0.00336498 -0.0370648 0.161665 0.172021 -0.0358443 0.169384
0.32497 -0.0283191 0.176988 0.226608 -0.0309889 0.184478 0.117018 -0.0345191 0.191866 0.0236483
-0.0297039 0.199044 0.0485185 -0.0254952 0.206054 0.156559 -0.0267247 0.212875 0.159144 -0.0295175
0.219459 0.0156703 -0.0218517 0.225875 0.112593 -0.0130406 0.232088 0.259694 -0.016291 9.87241e-05
0 -0.00120851 0 16.6 0 0.000201179 0 -0.0022868 0.000309937 0
-0.00328297 0.000427167 0 -0.00403273 0.000555838 0 -0.00443027 0.000698787 0 -0.00472404
0.000859156 0 -0.00502547 0.00104102 0.00100578 -0.00519608 0.00124843 0.0338645 -0.00527471 0.00148627
0.139337 -0.00537831 0.00176142 0.249079 -0.00546842 0.00207936 0.297746 -0.00542057 0.00244905 0.192862
-0.005535 0.00288068 0.0732382 -0.00577411 0.00338273 -0.0510022 -0.0058717 0.00397054 -0.14149 -0.00609514
0.00465985 -0.106063 -0.00647357 0.00546553 -0.111303 -0.00712474 0.00640968 -0.113905 -0.00812941 0.00751935
-0.069615 -0.009473 0.00882241 -0.00346948 -0.0109058 0.0103563 0.0338765 -0.0118142 0.0121608 0.0867682
-0.0114994 0.0142808 0.16303 -0.0102897 0.0167628 0.108568 -0.00953372 0.0196309 -0.0612245 -0.0097744
0.0228488 -0.0917106 -0.0121528 0.0264061 0.0389332 -0.016365 0.030307 0.0362876 -0.0216755 0.0345216
0.0419505 -0.0262697 0.0390249 0.065039 -0.0309435 0.0438515 -0.02213 -0.0368573 0.0489586 0.0293236
-0.040908 0.0543037 -0.023317 -0.0437352 0.0599501 -0.0702011 -0.0464955 0.0659291 0.144716 -0.0489476
0.072203 0.158885 -0.0520244 0.0786798 0.047856 -0.0537099 0.0853629 0.070358 -0.0551017 0.0922796
0.106594 -0.0561186 0.0994423 0.0401458 -0.0560005 0.106841 -0.00269303 -0.0563105 0.114383 0.0783441
-0.0537877 0.121961 0.0348807 -0.0497758 0.129578 0.140489 -0.0474017 0.137228 0.240096 -0.0462335
0.144913 0.118963 -0.0432763 0.152707 0.00309798 -0.0474571 0.160522 0.117259 -0.0432305 0.168289
0.258046 -0.0329432 0.175946 0.144369 -0.0396714 0.183522 0.0214097 -0.0371143 0.191034 0.0287604
-0.0263771 0.19837 0.151526 -0.0285435 0.205551 0.133316 -0.0301057 0.212499 0.140899 -0.0195873
0.219201 0.132152 -0.0245105 0.225788 0.0934111 -0.0261956 0.232198 0.0910169 -0.0196448 0.000100171
0 -0.00142863 0 16.6 0 0.000204124 0 -0.00266143 0.000314352 0
-0.00373492 0.000433195 0 -0.00453296 0.000563417 0 -0.00501133 0.000707691 0 -0.00535668
0.000869239 0 -0.00555713 0.00105222 -0.00041016 -0.00559614 0.00126023 0.000477037 -0.00568889 0.00149779
0.0601308 -0.00578595 0.00177196 0.176254 -0.005646 0.00208856 0.255021 -0.00555808 0.00245633 0.28607
-0.00577211 0.00288401 0.297827 -0.00599099 0.00338248 0.17367 -0.00608561 0.00396548 0.0490789 -0.00640294
0.00464719 -0.0796349 -0.00696114 0.00544506 -0.202014 -0.00765075 0.00638041 -0.186085 -0.00876779 0.00747968
-0.163307 -0.0103762 0.00877075 -0.110912 -0.0116368 0.0102908 -0.0550811 -0.0120645 0.0120836 -0.0228733
-0.0113677 0.0141889 0.0161855 -0.0102158 0.016645 0.0736768 -0.0104498 0.019492 0.0177179 -0.0122897
0.0226957 -0.030781 -0.016964 0.0262218 0.0695085 -0.0234406 0.0300561 0.0294321 -0.0302705 0.0341826
-0.00841023 -0.0362174 0.0385909 -0.0344071 -0.0414328 0.0433155 -0.0488428 -0.047737 0.0483434 0.0895774
-0.0515672 0.0536132 0.111246 -0.0544867 0.0591793 0.0382433 -0.0582598 0.0650925 0.0878385 -0.0595473
0.0713051 0.133864 -0.0615005 0.0777135 0.088994 -0.0640117 0.0843251 0.0675961 -0.0652353 0.0911767
0.0624564 -0.0662463 0.0982856 0.0597612 -0.0705726 0.105628 0.0946153 -0.0672739 0.113105 0.120141
-0.0611669 0.120656 0.130042 -0.0634657 0.128262 0.195699 -0.0504191 0.135908 0.13851 -0.0466309
0.1436 0.0773457 -0.0550055 0.151401 0.0308012 -0.0602054 0.159246 0.120831 -0.0578896 0.167046
0.223451 -0.0499305 0.174761 0.0738711 -0.0468187 0.182465 0.0642579 -0.0414565 0.190046 0.173052
-0.0269539 0.197493 0.16603 -0.0151955 0.20475 0.0347293 -0.0222101 0.211766 0.136012 -0.0164974
0.218629 0.241842 -0.0132831 0.225357 0.0536774 -0.0158429 0.23192 0.0202963 -0.019589 0.000101539
0 -0.00163467 0 16.6 0 0.000206831 0 -0.00301569 0.000318451 0
-0.00412485 0.000438744 0 -0.00498691 0.000570189 0 -0.00559316 0.0007156 0 -0.00589677
0.000878104 0 -0.00593949 0.00106152 0 -0.00600519 0.00126999 -0.00163278 -0.00600956 0.00150759
0.0199773 -0.00597798 0.00178062 0.103858 -0.00583157 0.002095 0.200865 -0.00564136 0.00245941 0.258012
-0.00579768 0.00288364 0.284211 -0.0060244 0.00337771 0.281956 -0.00624957 0.00395431 0.251064 -0.00666246
0.00462842 0.0900814 -0.00726383 0.00541729 -0.0254603 -0.00805056 0.0063442 -0.109039 -0.00917497 0.00743354
-0.208889 -0.0106801 0.00871228 -0.185994 -0.0118719 0.0102181 -0.144475 -0.0122087 0.011995 -0.112631
-0.0117056 0.0140799 -0.090564 -0.0112051 0.0165148 -0.0622022 -0.0126677 0.0193422 -0.020557 -0.0163481
0.0225209 0.035145 -0.0221057 0.0259926 0.0773516 -0.0293692 0.0297333 -0.00736792 -0.0384883 0.0337621
-0.0820805 -0.045814 0.0380968 -0.0380824 -0.0507635 0.0427563 0.0326105 -0.0571757 0.047709 0.128264
-0.0614565 0.0529053 0.237333 -0.0659841 0.0583952 0.234214 -0.0701524 0.0642276 0.0738635 -0.0718586
0.0703504 0.0562589 -0.0735793 0.0766618 0.0705778 -0.0756766 0.0831921 0.101192 -0.0773349 0.0899739
0.135345 -0.0788343 0.0969902 0.0522465 -0.0860789 0.104229 0.144421 -0.0793045 0.111629 0.238378
-0.0648411 0.11912 0.205974 -0.0754955 0.126654 0.196252 -0.0733246 0.134248 0.0709781 -0.0565622
0.141919 0.0678675 -0.0644274 0.149668 0.103554 -0.0746013 0.157464 0.166059 -0.0686221 0.165212
0.200295 -0.054034 0.172945 0.119691 -0.0468904 0.180677 0.190373 -0.0523358 0.18827 0.134276
-0.0448455 0.195712 0.115335 -0.0245224 0.202977 0.0801838 -0.0227837 0.210035 0.146305 -0.0216339
0.216968 0.21669 -0.0079308 0.223808 0.0114682 -0.0108671 0.230469 0.0863224 -0.0239472 0.000102872
0 -0.00182972 0 16.6 0 0.000209459 0 -0.00335785 0.000322382 0
-0.00456741 0.000444005 0 -0.00543299 0.000576512 0 -0.00600745 0.00072283 0 -0.00626357
0.000886273 0 -0.00625675 0.00106993 0 -0.00626108 0.00127837 -0.0012807 -0.00609945 0.00151561
-1.74991e-05 -0.00589832 0.00178663 0.0386945 -0.00578646 0.00209895 0.12633 -0.00565208 0.00246022 0.208474
-0.00575771 0.00288002 0.25848 -0.00604602 0.00336828 0.274038 -0.00644166 0.00393792 0.238299 -0.00698709
0.0046059 0.170769 -0.00755812 0.00538638 0.157283 -0.00837678 0.00630268 0.0848278 -0.00940259 0.00738106
-0.00522224 -0.0105752 0.00864701 0.00854902 -0.0117343 0.0101383 0.0163174 -0.012208 0.0118979 0.0177502
-0.0120045 0.0139636 0.0408225 -0.0122341 0.0163764 0.0480064 -0.0144462 0.0191744 0.0656322 -0.0198723
0.0223091 0.0785289 -0.0280256 0.0257239 0.0682636 -0.0364607 0.0293907 0.0962799 -0.0454365 0.0333329
0.103367 -0.0528945 0.0375881 0.0938144 -0.0596709 0.0421685 0.116506 -0.0673754 0.047041 0.150298
-0.0727842 0.0521641 0.19041 -0.077529 0.0575788 0.220686 -0.0809533 0.0633101 0.114128 -0.0838187
0.0693168 0.0480072 -0.0872728 0.075526 0.101043 -0.0905367 0.0819429 0.152963 -0.0859522 0.0886043
0.228298 -0.0879981 0.0955084 0.196627 -0.10212 0.102628 0.183075 -0.0964909 0.109913 0.173793
-0.0787584 0.117281 0.0606126 -0.0808365 0.12469 0.0872226 -0.0836056 0.132153 0.124726 -0.07847
0.139707 0.0675753 -0.0778054 0.147356 0.0506124 -0.0792323 0.155043 0.168175 -0.0695736 0.162694
0.121608 -0.0542097 0.170318 0.103269 -0.0573672 0.177937 0.137052 -0.0583638 0.185516 0.0354463
-0.0545546 0.192936 0.0495085 -0.0410513 0.200161 0.07975 -0.0272314 0.207172 0.153961 -0.0247606
0.214067 0.180341 -0.0191292 0.220907 0.0673865 -0.0207608 0.227595 0.138891 -0.0150269 0.000104053
0 -0.00203821 0 16.6 0 0.000211805 0 -0.00373148 0.000325886 0
-0.00502047 0.000448689 0 -0.00587778 0.000582385 0 -0.00636775 0.000729631 0 -0.00653729
0.000893752 0 -0.00647105 0.00107783 0 -0.006268 0.00128554 0 -0.00599795 0.0015212
-0.00108482 -0.00575938 0.00179004 -0.000888784 -0.00560487 0.00209951 0.0530427 -0.00555586 0.00245691 0.142575
-0.0056658 0.00287068 0.209261 -0.00598371 0.00335263 0.251534 -0.00660713 0.00391515 0.230549 -0.00727955
0.00457451 0.147641 -0.00791958 0.00534846 0.105871 -0.0087524 0.00625598 0.135253 -0.00972605 0.00732354
0.166143 -0.0107503 0.00857588 0.192767 -0.0118353 0.0100504 0.194711 -0.0124986 0.0117912 0.165918
-0.012526 0.0138372 0.159256 -0.013037 0.0162244 0.164886 -0.0151786 0.0189853 0.15498 -0.0211465
0.0220754 0.116877 -0.0314967 0.0254282 0.0925476 -0.0418594 0.0290228 0.0832154 -0.051889 0.0328934
0.0349505 -0.0618072 0.0370723 0.102855 -0.070193 0.0415626 0.179097 -0.0779836 0.0463413 0.139334
-0.0848888 0.0513789 0.103649 -0.0907312 0.0566949 0.0616685 -0.0960447 0.0623091 0.0293145 -0.0978384
0.0681908 0.12936 -0.100151 0.0742718 0.192846 -0.103056 0.0805504 0.151941 -0.0977463 0.0870551
0.152858 -0.0973076 0.0938052 0.138692 -0.107927 0.100768 0.117379 -0.106015 0.10788 -0.0140184
-0.0932598 0.115061 -0.113779 -0.0883108 0.122288 0.0700588 -0.0886831 0.129559 0.151619 -0.0892897
0.136911 -0.0039203 -0.091512 0.144361 -0.0214024 -0.0858956 0.151859 0.105205 -0.0726749 0.159342
0.109282 -0.0700959 0.166733 0.166887 -0.0750552 0.174132 0.125519 -0.070636 0.18156 0.074978
-0.0657034 0.18882 0.139332 -0.0508365 0.195887 0.0720285 -0.0353332 0.202827 0.0804911 -0.0281524
0.209652 0.0889849 -0.0292194 0.216303 0.0667538 -0.0272783 0.222918 0.0985564 -0.00289209 0.000105025
0 -0.00227195 0 16.6 0 0.000213754 0 -0.00412638 0.000328864 0
-0.00546886 0.00045274 0 -0.00628631 0.000587523 0 -0.00667529 0.00073563 0 -0.00669095
0.00089998 0 -0.00644556 0.0010838 0 -0.00609 0.00129011 0 -0.00572336 0.00152339
-0.0010238 -0.00545389 0.00178909 -0.012101 -0.00532611 0.00209395 -0.00477625 -0.00537985 0.00244561 0.0630091
-0.00557942 0.00285279 0.146302 -0.00597449 0.00332777 0.204401 -0.00661542 0.00388276 0.204869 -0.00735153
0.00453252 0.127303 -0.00825233 0.00529673 0.0711751 -0.00924718 0.0061954 0.0704156 -0.0102458 0.00725355
0.0827248 -0.0111666 0.0084952 0.112844 -0.0119963 0.00995301 0.128223 -0.012629 0.0116719 0.117106
-0.0125017 0.0136912 0.0823991 -0.0129132 0.0160472 0.0563565 -0.0156871 0.018774 0.0205511 -0.0224987
0.0218145 -0.050401 -0.0336542 0.0251066 0.0258963 -0.04625 0.0286414 0.0882851 -0.05902 0.032446
-0.0115931 -0.0714323 0.0365577 0.0173495 -0.0805834 0.0409633 0.0538809 -0.0889915 0.0456452 0.0577105
-0.0976191 0.0505851 0.0610991 -0.105141 0.0557861 -0.044942 -0.111954 0.0612713 -0.0294282 -0.114811
0.06701 0.0976104 -0.11661 0.0729366 0.189557 -0.118072 0.0790591 0.163988 -0.118708 0.0853861
0.0413263 -0.122003 0.0919434 0.0496594 -0.126219 0.0986955 0.0489634 -0.120579 0.105578 0.0487186
-0.112876 0.112532 0.0771415 -0.107901 0.119515 0.132469 -0.104586 0.126543 0.0545946 -0.0946761
0.133633 0.0207373 -0.0951792 0.140807 0.121864 -0.10132 0.148033 0.12223 -0.0930433 0.155231
0.148239 -0.0876866 0.162341 0.199269 -0.084183 0.169452 0.171072 -0.0845472 0.176594 0.146647
-0.0810764 0.183587 0.248138 -0.0617794 0.190385 0.0928829 -0.0517851 0.197089 -0.00753856 -0.0439402
0.203661 0.0755509 -0.0378594 0.210048 0.15305 -0.0346989 0.216468 0.127957 -0.0169574 0.000105704
0 -0.00251998 0 16.6 0 0.000215208 0 -0.00452123 0.000331155 0
-0.00588447 0.000455853 0 -0.00661909 0.000591277 0 -0.0068431 0.000739586 0 -0.00666291
0.000903406 0 -0.00622917 0.00108575 0 -0.00572552 0.00128965 0 -0.00529454 0.00151917
0 -0.005046 0.00177991 -0.00588887 -0.00507577 0.0020786 -0.0152811 -0.00530873 0.00242339 0.0068455
-0.00569793 0.00282307 0.0753098 -0.00626817 0.0032894 0.146443 -0.00691935 0.00383559 0.172724 -0.00781049
0.00447758 0.124098 -0.00887916 0.00523183 0.0604243 -0.00996171 0.00611928 0.042544 -0.0109207 0.00716557
0.0403075 -0.0115868 0.00839538 0.051477 -0.0120672 0.00983873 0.0488504 -0.0123818 0.0115382 0.0266953
-0.012024 0.013535 -0.0118123 -0.01204 0.0158576 -0.0568748 -0.0147844 0.0185384 -0.127145 -0.0228201
0.0215284 -0.0974315 -0.0351398 0.0247693 0.0690061 -0.0501622 0.0282576 0.0933273 -0.0658722 0.0320125
-0.0218034 -0.0806214 0.0360541 -0.0154677 -0.092299 0.0403846 -0.00549832 -0.102555 0.0449939 0.0636241
-0.112265 0.0498402 0.10276 -0.11945 0.0549317 -0.0784472 -0.124159 0.0602931 -0.0210265 -0.128514
0.065892 0.141732 -0.13263 0.0716737 0.145291 -0.134348 0.0776278 0.138176 -0.135029 0.0837745
0.0150323 -0.140344 0.0901361 0.0335174 -0.140929 0.0966609 0.184312 -0.135295 0.103289 0.177025
-0.136973 0.109977 0.171673 -0.129616 0.116693 0.214288 -0.123263 0.123444 0.112389 -0.118954
0.13023 0.150436 -0.109825 0.137081 0.227604 -0.105548 0.143981 0.22766 -0.0985964 0.150831
0.249304 -0.0952739 0.157624 0.141096 -0.0887156 0.164404 0.0778985 -0.0826949 0.171176 0.186969