# vtk DataFile Version 2.0
sampleSurface
ASCII
DATASET POLYDATA
POINTS 17673 float
0.04 -0.184464 -0.06 0.04 -0.184464 -0.0559273 0.04 -0.188453 -0.0559273 0.04 -0.188453
-0.06 0.04 -0.180475 -0.06 0.04 -0.180475 -0.0559273 0.04 -0.176486 -0.06
0.04 -0.176486 -0.0559273 0.04 -0.172497 -0.06 0.04 -0.172497 -0.0559273 0.04
-0.168508 -0.06 0.04 -0.168508 -0.0559273 0.04 -0.164519 -0.06 0.04 -0.164519
-0.0559273 0.04 -0.16053 -0.06 0.04 -0.16053 -0.0559273 0.04 -0.156541 -0.06
0.04 -0.156541 -0.0559273 0.04 -0.152552 -0.06 0.04 -0.152552 -0.0559273 0.04
-0.148563 -0.06 0.04 -0.148563 -0.0559273 0.04 -0.144574 -0.06 0.04 -0.144574
-0.0559273 0.04 -0.140586 -0.06 0.04 -0.140586 -0.0559273 0.04 -0.136596 -0.06
0.04 -0.136596 -0.0559273 0.04 -0.132607 -0.06 0.04 -0.132607 -0.0559273 0.04
-0.128619 -0.06 0.04 -0.128619 -0.0559273 0.04 -0.12463 -0.06 0.04 -0.12463
-0.0559273 0.04 -0.120641 -0.06 0.04 -0.120641 -0.0559273 0.04 -0.116652 -0.06
0.04 -0.116652 -0.0559273 0.04 -0.112663 -0.06 0.04 -0.112663 -0.0559273 0.04
-0.108674 -0.06 0.04 -0.108674 -0.0559273 0.04 -0.104685 -0.06 0.04 -0.104685
-0.0559273 0.04 -0.100696 -0.06 0.04 -0.100696 -0.0559273 0.04 -0.0967069 -0.06
0.04 -0.0967069 -0.0559273 0.04 -0.0927179 -0.06 0.04 -0.0927179 -0.0559273 0.04
-0.088739 -0.06 0.04 -0.0887391 -0.0559273 0.04 -0.0847775 -0.06 0.04 -0.0847775
-0.0559273 0.04 -0.0809835 -0.06 0.04 -0.0809835 -0.0559273 0.04 -0.0773956 -0.06
0.04 -0.0773956 -0.0559273 0.04 -0.0739968 -0.06 0.04 -0.0739968 -0.0559273 0.04
-0.0707629 -0.06 0.04 -0.0707629 -0.0559273 0.04 -0.0676784 -0.06 0.04 -0.0676784
-0.0559273 0.04 -0.0647301 -0.06 0.04 -0.0647301 -0.0559273 0.04 -0.0619431 -0.06
0.04 -0.0619431 -0.0559273 0.04 -0.0593321 -0.06 0.04 -0.0593321 -0.0559273 0.04
-0.0568459 -0.06 0.04 -0.0568459 -0.0559273 0.04 -0.0544545 -0.06 0.04 -0.0544545
-0.0559273 0.04 -0.0521732 -0.06 0.04 -0.0521732 -0.0559273 0.04 -0.0500374 -0.06
0.04 -0.0500374 -0.0559273 0.04 -0.0480123 -0.06 0.04 -0.0480123 -0.0559273 0.04
-0.046084 -0.06 0.04 -0.046084 -0.0559273 0.04 -0.0442254 -0.06 0.04 -0.0442254
-0.0559273 0.04 -0.0424486 -0.06 0.04 -0.0424486 -0.0559273 0.04 -0.0407648 -0.06
0.04 -0.0407648 -0.0559273 0.04 -0.0391821 -0.06 0.04 -0.0391821 -0.0559273 0.04
-0.0376993 -0.06 0.04 -0.0376993 -0.0559273 0.04 -0.0362943 -0.06 0.04 -0.0362943
-0.0559273 0.04 -0.0349524 -0.06 0.04 -0.0349524 -0.0559273 0.04 -0.0336651 -0.06
0.04 -0.0336651 -0.0559273 0.04 -0.0324289 -0.06 0.04 -0.0324289 -0.0559273 0.04
-0.0312728 -0.06 0.04 -0.0312728 -0.0559273 0.04 -0.0301752 -0.06 0.04 -0.0301752
-0.0559273 0.04 -0.0291177 -0.06 0.04 -0.0291177 -0.0559273 0.04 -0.0281145 -0.06
0.04 -0.0281145 -0.0559273 0.04 -0.0271661 -0.06 0.04 -0.0271661 -0.0559273 0.04
-0.0262754 -0.06 0.04 -0.0262754 -0.0559273 0.04 -0.02543 -0.06 0.04 -0.02543
-0.0559273 0.04 -0.0246256 -0.06 0.04 -0.0246256 -0.0559273 0.04 -0.0238573 -0.06
0.04 -0.0238573 -0.0559273 0.04 -0.023094 -0.0559273 0.04 -0.023094 -0.06 0.04
-0.184464 -0.0519514 0.04 -0.188453 -0.0519514 0.04 -0.180475 -0.0519514 0.04 -0.176486
-0.0519514 0.04 -0.172497 -0.0519514 0.04 -0.168508 -0.0519514 0.04 -0.164519 -0.0519514
0.04 -0.16053 -0.0519514 0.04 -0.156541 -0.0519514 0.04 -0.152552 -0.0519514 0.04
-0.148563 -0.0519514 0.04 -0.144574 -0.0519514 0.04 -0.140586 -0.0519514 0.04 -0.136596
-0.0519514 0.04 -0.132607 -0.0519514 0.04 -0.128619 -0.0519514 0.04 -0.12463 -0.0519514
0.04 -0.120641 -0.0519514 0.04 -0.116652 -0.0519514 0.04 -0.112663 -0.0519514 0.04
-0.108674 -0.0519514 0.04 -0.104685 -0.0519514 0.04 -0.100696 -0.0519514 0.04 -0.0967069
-0.0519514 0.04 -0.0927179 -0.0519514 0.04 -0.088739 -0.0519514 0.04 -0.0847775 -0.0519514
0.04 -0.0809835 -0.0519514 0.04 -0.0773956 -0.0519514 0.04 -0.0739968 -0.0519514 0.04
-0.0707629 -0.0519514 0.04 -0.0676784 -0.0519514 0.04 -0.0647301 -0.0519514 0.04 -0.0619431
-0.0519514 0.04 -0.0593321 -0.0519514 0.04 -0.0568459 -0.0519514 0.04 -0.0544545 -0.0519514
0.04 -0.0521732 -0.0519514 0.04 -0.0500374 -0.0519514 0.04 -0.0480123 -0.0519514 0.04
-0.046084 -0.0519514 0.04 -0.0442254 -0.0519514 0.04 -0.0424486 -0.0519514 0.04 -0.0407648
-0.0519514 0.04 -0.0391821 -0.0519514 0.04 -0.0376993 -0.0519514 0.04 -0.0362943 -0.0519514
0.04 -0.0349524 -0.0519514 0.04 -0.0336651 -0.0519514 0.04 -0.0324289 -0.0519514 0.04
-0.0312728 -0.0519514 0.04 -0.0301752 -0.0519514 0.04 -0.0291177 -0.0519514 0.04 -0.0281145
-0.0519514 0.04 -0.0271661 -0.0519514 0.04 -0.0262754 -0.0519514 0.04 -0.02543 -0.0519514
0.04 -0.0246256 -0.0519514 0.04 -0.0238573 -0.0519514 0.04 -0.023094 -0.0519514 0.04
-0.184464 -0.0479754 0.04 -0.188453 -0.0479754 0.04 -0.180475 -0.0479754 0.04 -0.176486
-0.0479754 0.04 -0.172497 -0.0479754 0.04 -0.168508 -0.0479754 0.04 -0.164519 -0.0479754
0.04 -0.16053 -0.0479754 0.04 -0.156541 -0.0479754 0.04 -0.152552 -0.0479754 0.04
-0.148563 -0.0479754 0.04 -0.144574 -0.0479754 0.04 -0.140586 -0.0479754 0.04 -0.136596
-0.0479754 0.04 -0.132607 -0.0479754 0.04 -0.128619 -0.0479754 0.04 -0.12463 -0.0479754
0.04 -0.120641 -0.0479754 0.04 -0.116652 -0.0479754 0.04 -0.112663 -0.0479754 0.04
-0.108674 -0.0479754 0.04 -0.104685 -0.0479754 0.04 -0.100696 -0.0479754 0.04 -0.0967069
-0.0479754 0.04 -0.0927179 -0.0479754 0.04 -0.0887391 -0.0479754 0.04 -0.0847775 -0.0479754
0.04 -0.0809835 -0.0479754 0.04 -0.0773956 -0.0479754 0.04 -0.0739968 -0.0479754 0.04
-0.0707629 -0.0479754 0.04 -0.0676784 -0.0479754 0.04 -0.0647301 -0.0479754 0.04 -0.0619431
-0.0479754 0.04 -0.0593321 -0.0479754 0.04 -0.0568459 -0.0479754 0.04 -0.0544545 -0.0479754
0.04 -0.0521732 -0.0479754 0.04 -0.0500374 -0.0479754 0.04 -0.0480123 -0.0479754 0.04
-0.046084 -0.0479754 0.04 -0.0442254 -0.0479754 0.04 -0.0424486 -0.0479754 0.04 -0.0407648
-0.0479754 0.04 -0.0391821 -0.0479754 0.04 -0.0376993 -0.0479754 0.04 -0.0362943 -0.0479754
0.04 -0.0349524 -0.0479754 0.04 -0.0336651 -0.0479754 0.04 -0.0324289 -0.0479754 0.04
-0.0312728 -0.0479754 0.04 -0.0301752 -0.0479754 0.04 -0.0291177 -0.0479754 0.04 -0.0281145
-0.0479754 0.04 -0.0271661 -0.0479754 0.04 -0.0262754 -0.0479754 0.04 -0.02543 -0.0479754
0.04 -0.0246256 -0.0479754 0.04 -0.0238573 -0.0479754 0.04 -0.023094 -0.0479754 0.04
-0.184464 -0.0439994 0.04 -0.188453 -0.0439994 0.04 -0.180475 -0.0439994 0.04 -0.176486
-0.0439994 0.04 -0.172497 -0.0439994 0.04 -0.168508 -0.0439994 0.04 -0.164519 -0.0439994
0.04 -0.16053 -0.0439994 0.04 -0.156541 -0.0439994 0.04 -0.152552 -0.0439994 0.04
-0.148563 -0.0439994 0.04 -0.144574 -0.0439994 0.04 -0.140586 -0.0439994 0.04 -0.136596
-0.0439994 0.04 -0.132607 -0.0439994 0.04 -0.128619 -0.0439994 0.04 -0.12463 -0.0439994
0.04 -0.120641 -0.0439994 0.04 -0.116652 -0.0439994 0.04 -0.112663 -0.0439994 0.04
-0.108674 -0.0439994 0.04 -0.104685 -0.0439994 0.04 -0.100696 -0.0439994 0.04 -0.0967069
-0.0439994 0.04 -0.0927179 -0.0439994 0.04 -0.0887391 -0.0439994 0.04 -0.0847775 -0.0439994
0.04 -0.0809835 -0.0439994 0.04 -0.0773956 -0.0439994 0.04 -0.0739968 -0.0439994 0.04
-0.0707629 -0.0439994 0.04 -0.0676784 -0.0439994 0.04 -0.0647301 -0.0439994 0.04 -0.0619431
-0.0439994 0.04 -0.0593321 -0.0439994 0.04 -0.0568459 -0.0439994 0.04 -0.0544545 -0.0439994
0.04 -0.0521732 -0.0439994 0.04 -0.0500374 -0.0439994 0.04 -0.0480123 -0.0439994 0.04
-0.046084 -0.0439994 0.04 -0.0442254 -0.0439994 0.04 -0.0424486 -0.0439994 0.04 -0.0407648
-0.0439994 0.04 -0.0391821 -0.0439994 0.04 -0.0376993 -0.0439994 0.04 -0.0362943 -0.0439994
0.04 -0.0349524 -0.0439994 0.04 -0.0336651 -0.0439994 0.04 -0.0324289 -0.0439994 0.04
-0.0312728 -0.0439994 0.04 -0.0301752 -0.0439994 0.04 -0.0291177 -0.0439994 0.04 -0.0281145
-0.0439994 0.04 -0.0271661 -0.0439994 0.04 -0.0262754 -0.0439994 0.04 -0.02543 -0.0439994
0.04 -0.0246256 -0.0439994 0.04 -0.0238573 -0.0439994 0.04 -0.023094 -0.0439994 0.04
-0.184464 -0.0400235 0.04 -0.188453 -0.0400235 0.04 -0.180475 -0.0400235 0.04 -0.176486
-0.0400235 0.04 -0.172497 -0.0400235 0.04 -0.168508 -0.0400235 0.04 -0.164519 -0.0400235
0.04 -0.16053 -0.0400235 0.04 -0.156541 -0.0400235 0.04 -0.152552 -0.0400235 0.04
-0.148563 -0.0400235 0.04 -0.144574 -0.0400235 0.04 -0.140586 -0.0400235 0.04 -0.136596
-0.0400235 0.04 -0.132607 -0.0400235 0.04 -0.128619 -0.0400235 0.04 -0.12463 -0.0400235
0.04 -0.120641 -0.0400235 0.04 -0.116652 -0.0400235 0.04 -0.112663 -0.0400235 0.04
-0.108674 -0.0400235 0.04 -0.104685 -0.0400235 0.04 -0.100696 -0.0400235 0.04 -0.0967069
-0.0400235 0.04 -0.0927179 -0.0400235 0.04 -0.088739 -0.0400235 0.04 -0.0847775 -0.0400235
0.04 -0.0809835 -0.0400235 0.04 -0.0773956 -0.0400235 0.04 -0.0739968 -0.0400235 0.04
-0.0707629 -0.0400235 0.04 -0.0676784 -0.0400235 0.04 -0.0647301 -0.0400235 0.04 -0.0619431
-0.0400235 0.04 -0.0593321 -0.0400235 0.04 -0.0568459 -0.0400235 0.04 -0.0544545 -0.0400235
0.04 -0.0521732 -0.0400235 0.04 -0.0500374 -0.0400235 0.04 -0.0480123 -0.0400235 0.04
-0.046084 -0.0400235 0.04 -0.0442254 -0.0400235 0.04 -0.0424486 -0.0400235 0.04 -0.0407648
-0.0400235 0.04 -0.0391821 -0.0400235 0.04 -0.0376993 -0.0400235 0.04 -0.0362943 -0.0400235
0.04 -0.0349524 -0.0400235 0.04 -0.0336651 -0.0400235 0.04 -0.0324289 -0.0400235 0.04
-0.0312728 -0.0400235 0.04 -0.0301752 -0.0400235 0.04 -0.0291177 -0.0400235 0.04 -0.0281145
-0.0400235 0.04 -0.0271661 -0.0400235 0.04 -0.0262754 -0.0400235 0.04 -0.02543 -0.0400235
0.04 -0.0246256 -0.0400235 0.04 -0.0238573 -0.0400235 0.04 -0.023094 -0.0400235 0.04
-0.184464 -0.0360475 0.04 -0.188453 -0.0360475 0.04 -0.180475 -0.0360475 0.04 -0.176486
-0.0360475 0.04 -0.172497 -0.0360475 0.04 -0.168508 -0.0360475 0.04 -0.164519 -0.0360475
0.04 -0.16053 -0.0360475 0.04 -0.156541 -0.0360475 0.04 -0.152552 -0.0360475 0.04
-0.148563 -0.0360475 0.04 -0.144574 -0.0360475 0.04 -0.140586 -0.0360475 0.04 -0.136596
-0.0360475 0.04 -0.132607 -0.0360475 0.04 -0.128619 -0.0360475 0.04 -0.12463 -0.0360475
0.04 -0.120641 -0.0360475 0.04 -0.116652 -0.0360475 0.04 -0.112663 -0.0360475 0.04
-0.108674 -0.0360475 0.04 -0.104685 -0.0360475 0.04 -0.100696 -0.0360475 0.04 -0.0967069
[...]
POINT_DATA 17673
FIELD attributes 1
Mode1 3 17673 float
0 0 0 8.74867e-05 0 0.00662474 0 16.6 0 0 8.25622
0 0 0 0 0.000192097 0 0.0142843 0 0 0
0.000316002 0.0215322 0.0231546 0 0 0 0.000462741 -0.0841331 0.033358 0
0 0 0.000637113 -0.105665 0.0449702 0 0 0 0.000845295 -0.0970926
0.0581031 0 0 0 0.00109426 -0.0970927 0.0728398 0 0 0
0.00139175 -0.105809 0.0892688 0 0 0 0.00174666 -0.240951 0.107519 0
0 0 0.00216873 -0.302079 0.127681 0 0 0 0.00266868 -0.414522
0.149779 0 0 0 0.00325824 -0.483895 0.173909 0 0 0
0.00395054 -0.488904 0.200185 0 0 0 0.00476114 -0.582825 0.228604 0
0 0 0.00570615 -0.743837 0.259151 0 0 0 0.0068045 -0.920564
0.291753 0 0 0 0.0080797 -1.14242 0.326166 0 0 0
0.00955474 -1.37662 0.36177 0 0 0 0.0112595 -1.59391 0.397354 0
0 0 0.013231 -1.81532 0.431401 0 0 0 0.0155084 -2.06407
0.462968 0 0 0 0.0181378 -2.38267 0.491943 0 0 0
0.0211775 -2.74468 0.518423 0 0 0 0.0246962 -3.12591 0.542466 0
0 0 0.028757 -3.54209 0.564194 0 0 0 0.0334279 -3.97027
0.583844 0 0 0 0.0386646 -4.39835 0.601446 0 0 0
0.0444424 -4.85418 0.617617 0 0 0 0.0507871 -5.31694 0.633398 0
0 0 0.0577236 -5.76589 0.650298 0 0 0 0.0653068 -6.24781
0.669738 0 0 0 0.0735695 -6.73902 0.692659 0 0 0
0.0824448 -7.21077 0.719306 0 0 0 0.0918983 -7.68367 0.748255 0
0 0 0.101998 -8.14608 0.77804 0 0 0 0.112775 -8.57568
0.807827 0 0 0 0.124203 -9.05504 0.836419 0 0 0
0.136173 -9.54498 0.863229 0 0 0 0.148664 -9.98072 0.888195 0
0 0 0.161715 -10.4355 0.911108 0 0 0 0.175381 -10.8398
0.931953 0 0 0 0.189598 -11.2185 0.950639 0 0 0
0.20423 -11.6305 0.967279 0 0 0 0.219195 -12.0224 0.981681 0
0 0 0.234418 -12.389 0.993796 0 0 0 0.249911 -12.7514
1.00421 0 0 0 0.265714 -13.0919 1.01302 0 0 0
0.281825 -13.405 1.02015 0 0 0 0.298185 -13.7365 1.02585 0
0 0 0.314646 -14.0606 1.0304 0 0 0 0.331165 -14.33
1.03336 0 0 0 0.347828 -14.5948 1.03498 0 0 0
0.364576 -14.8407 1.03533 0 0 0 0.381302 -15.0564 1.03412 0
0 0 0.397904 -15.3328 1.03163 0 0 0 0.414419 -15.5679
1.02774 0 0 0 0.43089 -15.7414 1.02242 0 0 0
0.447141 -15.9336 1.017 0.46359 -16.1227 1.00693 0 0 0 9.71542e-05
0 0.00725905 0 16.6 0 0.000214629 0 0.0160971 0.00035488 0.021445
0.0265079 0.000521116 0.021445 0.0385653 0.000717932 0 0.0523474 0.000950945 -0.0600965 0.0679714
0.00122661 -0.170309 0.085567 0.00155243 -0.20339 0.105314 0.00193701 -0.187498 0.127368 0.00238955
-0.226449 0.151863 0.00292076 -0.249428 0.178956 0.00354175 -0.203655 0.208824 0.00426503 -0.19726
0.241675 0.00510537 -0.281297 0.277639 0.00607864 -0.36983 0.316827 0.00720506 -0.464494 0.359383
0.00850767 -0.571241 0.405334 0.0100075 -0.680821 0.454686 0.011735 -0.811219 0.507448 0.0137247
-0.902756 0.563568 0.016012 -1.0112 0.623073 0.0186459 -1.23815 0.68601 0.0216807 -1.48285
0.752321 0.0251814 -1.73623 0.821787 0.0292105 -2.03853 0.894085 0.033831 -2.35766 0.969247
0.0390052 -2.72154 1.04567 0.0447133 -3.12573 1.12214 0.0509799 -3.52798 1.19809 0.057828
-3.98055 1.27353 0.0652946 -4.44586 1.34862 0.0734194 -4.8967 1.42297 0.0821568 -5.36046
1.49643 0.0914568 -5.84283 1.56822 0.101364 -6.31439 1.63764 0.111937 -6.74808 1.70439
0.123159 -7.22107 1.76763 0.134902 -7.68625 1.82695 0.147161 -8.12811 1.88238 0.159967
-8.60512 1.93397 0.173352 -9.04781 1.98178 0.18729 -9.45132 2.02564 0.201656 -9.83852
2.06532 0.216342 -10.2276 2.10045 0.231297 -10.6146 2.13096 0.246527 -10.9898 2.15757
0.262062 -11.3674 2.18093 0.277879 -11.6781 2.20071 0.293989 -11.998 2.21705 0.310179
-12.3284 2.23012 0.326433 -12.6219 2.24036 0.342859 -12.9085 2.24633 0.359384 -13.1495
2.24813 0.375908 -13.3731 2.24616 0.392323 -13.6406 2.2418 0.408668 -13.8892 2.23457
0.424958 -14.0918 2.22192 0.441107 -14.2888 2.20818 0.457456 -14.4819 2.1892 0.000110049
0 0.00971532 0 16.6 0 0.000241013 0 0.0213479 0.000397464 0
0.0350199 0.000583356 0 0.0508293 0.000803102 0 0.0689231 0.00106213 -0.0600966 0.0894533
0.00136709 -0.18143 0.112552 0.00172526 -0.307005 0.138475 0.00214461 -0.394794 0.167396 0.00263409
-0.416308 0.199475 0.00320412 -0.402607 0.234967 0.00386626 -0.389923 0.27414 0.00463207 -0.422336
0.31723 0.00551558 -0.532127 0.364515 0.00653399 -0.693676 0.416238 0.00770541 -0.837258 0.472657
0.00905212 -0.928489 0.534117 0.010598 -1.02946 0.601022 0.0123709 -1.2102 0.673921 0.0144049
-1.4086 0.753373 0.0167387 -1.58562 0.839799 0.0194212 -1.83114 0.93322 0.0225078 -2.09914
1.03359 0.0260604 -2.36954 1.14068 0.0301428 -2.68666 1.2537 0.0348169 -3.02354 1.37206
0.0400345 -3.38275 1.49299 0.0457686 -3.78175 1.61433 0.0520407 -4.16425 1.7351 0.0588852
-4.56539 1.85487 0.0663396 -4.98302 1.97337 0.0744249 -5.41077 2.0896 0.0831233 -5.84059
2.202 0.0923664 -6.26811 2.30922 0.102181 -6.70067 2.41144 0.112645 -7.11325 2.50951
0.123717 -7.5457 2.603 0.135278 -7.97065 2.69124 0.147323 -8.38697 2.77419 0.159918
-8.80226 2.85178 0.173104 -9.19085 2.92433 0.186833 -9.5863 2.99167 0.200999 -9.95878
3.05265 0.215504 -10.3096 3.10784 0.230282 -10.6452 3.15704 0.245324 -10.9775 3.19914
0.260691 -11.3418 3.2372 0.27635 -11.6489 3.26869 0.292302 -11.9467 3.29296 0.308397
-12.2604 3.31209 0.324572 -12.5505 3.32642 0.340882 -12.8021 3.33386 0.357259 -13.0207
3.33507 0.373663 -13.2417 3.32982 0.389971 -13.4877 3.31999 0.406222 -13.7143 3.30784
0.422435 -13.9023 3.28467 0.438524 -14.1049 3.25738 0.454652 -14.2815 3.22328 0.000119211
0 0.0138353 0 16.6 0 0.000260387 0 0.0298061 0.000428848 0
0.0482039 0.00062889 0 0.0692314 0.000865242 0 0.0931347 0.00114327 0 0.120142
0.00146938 -0.0111207 0.150465 0.00185084 -0.141263 0.18437 0.00229522 -0.34658 0.222057 0.00281114
-0.462213 0.263793 0.00340847 -0.491833 0.309871 0.00409772 -0.496549 0.360567 0.00489133 -0.492155
0.416228 0.00580296 -0.503031 0.477192 0.00684859 -0.610828 0.543809 0.00804518 -0.800922 0.616453
0.00941439 -0.961241 0.69558 0.0109815 -1.0669 0.781716 0.0127738 -1.22413 0.875489 0.0148256
-1.48451 0.977372 0.0171758 -1.74778 1.08814 0.0198708 -1.99162 1.20801 0.0229649 -2.26846
1.33671 0.0265101 -2.5536 1.47401 0.0305619 -2.85402 1.61907 0.035174 -3.20236 1.77086
0.0403058 -3.57865 1.92543 0.0459315 -3.96041 2.08077 0.0520765 -4.3169 2.23687 0.0587733
-4.70349 2.39326 0.0660428 -5.12525 2.54914 0.0738948 -5.52308 2.70326 0.0822998 -5.93797
2.85333 0.0911769 -6.3585 2.99746 0.100593 -6.75701 3.13589 0.110649 -7.16186 3.26939
0.1213 -7.57704 3.39692 0.132456 -7.96836 3.5164 0.1441 -8.36702 3.62872 0.156316
-8.77888 3.73313 0.169166 -9.14375 3.82987 0.182556 -9.51579 3.92036 0.196412 -9.89878
4.00087 0.210654 -10.2567 4.07394 0.225198 -10.5941 4.1415 0.240059 -10.9215 4.19724
0.255273 -11.246 4.24512 0.270824 -11.5496 4.28774 0.286693 -11.8747 4.32142 0.302793
-12.1743 4.34731 0.319016 -12.4262 4.3669 0.335393 -12.6724 4.37723 0.351915 -12.8984
4.381 0.368457 -13.1281 4.37735 0.384972 -13.3736 4.36559 0.401466 -13.5808 4.35021
0.417948 -13.7611 4.32437 0.434374 -13.974 4.29475 0.450891 -14.1534 4.25202 0.000126253
0 0.0177234 0 16.6 0 0.000274528 0 0.0378848 0.000450637 0
0.0609617 0.000659271 0 0.0872397 0.000905442 0 0.116975 0.00119468 0 0.150492
0.001533 0 0.188056 0.00192715 -0.0387828 0.229899 0.00238477 -0.208486 0.276308 0.00291384
-0.395755 0.32763 0.00352318 -0.482354 0.384176 0.00422276 -0.527835 0.446256 0.00502473 -0.537042
0.514289 0.00594184 -0.538787 0.58866 0.00698789 -0.569743 0.669811 0.00818109 -0.711647 0.758205
0.00954148 -0.927367 0.854498 0.0110917 -1.1095 0.959264 0.0128613 -1.28651 1.07338 0.0148824
-1.52263 1.19783 0.0171918 -1.79512 1.33314 0.0198339 -2.02796 1.47964 0.0228525 -2.26628
1.63638 0.0262892 -2.54262 1.80274 0.0301935 -2.83346 1.97887 0.034624 -3.16532 2.16408
0.039549 -3.53895 2.35372 0.0449562 -3.91014 2.54469 0.0508606 -4.26004 2.73674 0.0572664
-4.63639 2.92902 0.0641722 -5.03353 3.12026 0.0715819 -5.39442 3.3096 0.0794867 -5.79621
3.49428 0.0878678 -6.20065 3.67253 0.0968165 -6.58811 3.84489 0.106403 -7.0164 4.0117
0.116627 -7.4094 4.17113 0.12741 -7.78511 4.32121 0.138705 -8.17667 4.4618 0.150589
-8.56503 4.59348 0.16312 -8.94037 4.71694 0.176227 -9.30653 4.83093 0.189841 -9.6808
4.93266 0.203854 -10.0384 5.02443 0.218208 -10.3841 5.10727 0.23294 -10.7226 5.17797
0.248031 -11.0302 5.23842 0.263525 -11.3293 5.29252 0.279365 -11.6616 5.33682 0.295447
-11.9557 5.37113 0.311711 -12.2076 5.39963 0.328178 -12.4583 5.41668 0.344832 -12.7104
5.42319 0.361555 -12.9737 5.42273 0.378304 -13.197 5.41415 0.395028 -13.4054 5.39654
0.411758 -13.6118 5.37248 0.428485 -13.8176 5.34708 0.445326 -13.9826 5.30387 0.000131319
0 0.0214873 0 16.6 0 0.000283956 0 0.0458351 0.000464194 0
0.0736612 0.000677035 0 0.10533 0.000927387 0 0.141139 0.00122072 0 0.181425
0.00156315 0 0.226465 0.00196101 -0.00113383 0.276533 0.00242106 -0.11084 0.331996 0.00295052
-0.301921 0.393191 0.003558 -0.431142 0.46044 0.00425247 -0.501177 0.534137 0.00504402 -0.538444
0.614701 0.0059448 -0.565235 0.7026 0.00696767 -0.574371 0.798333 0.00813079 -0.663932 0.902392
0.00945156 -0.873505 1.01559 0.0109501 -1.11536 1.13864 0.0126569 -1.32602 1.27226 0.0146026
-1.49912 1.41783 0.0168194 -1.71312 1.57561 0.0193459 -1.95902 1.74556 0.0222159 -2.17882
1.92705 0.0254684 -2.42023 2.11951 0.0291601 -2.72891 2.32357 0.0333523 -3.07671 2.53878
0.0380118 -3.42258 2.75987 0.0431112 -3.76098 2.98317 0.0486438 -4.11075 3.20765 0.0546087
-4.4536 3.43244 0.0610092 -4.80731 3.65662 0.0678893 -5.18287 3.87948 0.0752764 -5.57525
4.09817 0.0831854 -5.97196 4.31066 0.0916855 -6.34427 4.51797 0.100818 -6.73236 4.71907
0.110591 -7.12155 4.91276 0.120925 -7.49761 5.09688 0.13179 -7.88327 5.27042 0.143272
-8.26407 5.43631 0.155413 -8.64324 5.59081 0.168155 -9.01852 5.73102 0.181445 -9.39002
5.85977 0.195165 -9.75659 5.97653 0.209281 -10.1002 6.07844 0.223818 -10.4202 6.16666
0.238742 -10.7349 6.24559 0.254134 -11.0492 6.31453 0.269921 -11.3894 6.37035 0.285969
-11.7046 6.41644 0.302255 -11.9818 6.45353 0.318807 -12.2563 6.47852 0.335557 -12.5449
6.4901 0.35245 -12.8039 6.4929 0.369404 -13.0144 6.49108 0.386369 -13.2371 6.47785
0.403384 -13.4492 6.45562 0.420421 -13.664 6.43192 0.437637 -13.8532 6.38993 0.000134201
0 0.0247724 0 16.6 0 0.00028883 0 0.0528901 0.000470343 0
0.0850904 0.000683804 0 0.121807 0.000934281 0 0.163407 0.00122704 0 0.210225
0.00156783 0 0.26256 0.00196277 0 0.320722 0.00241787 -0.0431795 0.385038 0.00293956
-0.196016 0.455892 0.0035358 -0.363843 0.53363 0.00421405 -0.457837 0.618621 0.0049827 -0.513956
0.711339 0.00585273 -0.54749 0.812293 0.00683645 -0.575437 0.922125 0.00794911 -0.646832 1.04115
0.00920728 -0.818347 1.17033 0.0106299 -1.08362 1.31078 0.0122431 -1.31677 1.46266 0.014075
-1.46043 1.62732 0.0161585 -1.60497 1.80571 0.0185241 -1.81234 1.99713 0.0212001 -2.04709
2.20149 0.0242277 -2.28857 2.41856 0.0276598 -2.58857 2.64861 0.0315517 -2.92874 2.89146
0.0358717 -3.25065 3.14102 0.0405729 -3.55467 3.39386 0.0456269 -3.87798 3.64861 0.0510539
-4.20325 3.9043 0.0569048 -4.54006 4.16109 0.0632453 -4.90878 4.41856 0.0701057 -5.2757
4.67356 0.0774826 -5.66334 4.92347 0.0854246 -6.03717 5.16835 0.0940042 -6.36891 5.40867
0.103223 -6.73615 5.64299 0.113004 -7.11615 5.86521 0.123339 -7.5042 6.07581 0.134294
-7.90585 6.27756 0.145911 -8.27775 6.46624 0.15817 -8.67265 6.64025 0.171001 -9.06146
6.80002 0.184295 -9.42964 6.94508 0.198039 -9.79176 7.07333 0.212233 -10.1 7.18477
0.226865 -10.4331 7.28374 0.241978 -10.7905 7.37158 0.257547 -11.1266 7.44359 0.273429
-11.4488 7.50205 0.289605 -11.7465 7.54871 0.306088 -12.0353 7.58236 0.322814 -12.3245
7.60284 0.339725 -12.6036 7.61214 0.356708 -12.8585 7.61489 0.373759 -13.0856 7.60836
0.390954 -13.2878 7.58906 0.40822 -13.4958 7.56772 0.425718 -13.7405 7.52699 0.000134087
0 0.0275259 0 16.6 0 0.000287703 0 0.0589083 0.000467333 0
0.0950377 0.000678017 0 0.136422 0.00092497 0 0.183479 0.00121359 0 0.236545
0.00154901 0 0.295936 0.00193672 0 0.361969 0.00238245 -0.00541377 0.434926 0.00289192
-0.10555 0.515179 0.00347142 -0.274337 0.60311 0.00412773 -0.396896 0.699085 0.00486783 -0.473042
0.803609 0.0057014 -0.519182 0.917196 0.00663652 -0.552447 1.04044 0.00768707 -0.612046 1.17375
0.00886968 -0.762894 1.31807 0.0101997 -1.00098 1.47443 0.0116993 -1.23294 1.64326 0.0133956
-1.41308 1.82558 0.0153199 -1.54601 2.02238 0.0174963 -1.69169 2.23335 0.0199511 -1.88171
2.45823 0.0227214 -2.14306 2.69709 0.0258487 -2.4571 2.95063 0.0293825 -2.75063 3.21855
0.0332874 -3.0213 3.49427 0.0375086 -3.29275 3.77349 0.0420212 -3.61021 4.05509 0.0468759
-3.93179 4.3398 0.0521543 -4.23608 4.62876 0.0579045 -4.57153 4.92165 0.0641503 -4.90786
5.21395 0.0708856 -5.25184 5.50196 0.0781618 -5.61917 5.78622 0.0860641 -5.95147 6.06845
0.0945948 -6.2888 6.34715 0.10369 -6.67718 6.61449 0.113358 -7.06661 6.86625 0.123631
-7.46779 7.10721 0.134568 -7.86217 7.33956 0.146183 -8.25784 7.5574 0.158396 -8.64738
7.754 0.171119 -9.00398 7.93231 0.184314 -9.37864 8.09501 0.197985 -9.73316 8.23979
0.212146 -10.0816 8.36516 0.226804 -10.4562 8.47451 0.24196 -10.8244 8.56828 0.257502
-11.1564 8.64361 0.273346 -11.4815 8.70504 0.289555 -11.799 8.75042 0.306107 -12.0804
8.78007 0.322873 -12.3709 8.79728 0.339733 -12.6756 8.80211 0.356683 -12.9328 8.79739
0.373823 -13.1565 8.78049 0.391078 -13.3753 8.759 0.408693 -13.6386 8.71341 0.000130491
0 0.0295358 0 16.6 0 0.000279671 0 0.0634949 0.000454172 0
0.102952 0.000659143 0 0.148497 0.000899675 0 0.20054 0.00118108 0 0.259416
0.00150857 0 0.325442 0.00188704 0 0.398899 0.00232144 0 0.480069 0.00281673
-0.038769 0.569279 0.00337779 -0.160933 0.666887 0.00401059 -0.308343 0.77331 0.00472123 -0.410559
0.888955 0.00551621 -0.474693 1.01441 0.0064012 -0.515933 1.15028 0.00738903 -0.579467 1.29683
0.00849229 -0.714309 1.45509 0.0097236 -0.888762 1.62604 0.0111021 -1.08079 1.81022 0.0126527
-1.27217 2.0085 0.0144016 -1.44674 2.22175 0.0163719 -1.60271 2.4503 0.0185888 -1.746
2.69365 0.0210771 -1.97356 2.95192 0.0238677 -2.25314 3.22606 0.0270034 -2.49378 3.51592
0.0304444 -2.73929 3.81434 0.034134 -3.01474 4.1159 0.038072 -3.28983 4.42147 0.0423295
-3.55916 4.73431 0.0469617 -3.85872 5.05479 0.0520371 -4.1705 5.38217 0.0575803 -4.47418
5.71214 0.0635772 -4.78332 6.04083 0.0700956 -5.10392 6.36931 0.0771897 -5.44143 6.69615
0.0848799 -5.79393 7.02025 0.0931315 -6.16284 7.33667 0.101944 -6.52176 7.63879 0.111365
-6.89475 7.92988 0.121462 -7.30278 8.21193 0.132237 -7.68398 8.47928 0.143626 -8.07788
8.72499 0.155541 -8.48575 8.94799 0.167957 -8.87903 9.15317 0.18088 -9.28048 9.33871
0.194317 -9.65052 9.50056 0.208312 -10.0132 9.64065 0.222849 -10.4113 9.76138 0.237789
-10.7903 9.85951 0.253055 -11.1649 9.93903 0.268738 -11.5139 9.99967 0.284807 -11.8217
10.0386 0.301126 -12.1452 10.0611 0.317609 -12.4575 10.0682 0.334252 -12.7439 10.0621
0.351106 -13.0151 10.0432 0.367992 -13.2575 10.0177 0.385486 -13.5099 9.96212 0.000123076
0 0.0306151 0 16.6 0 0.00026437 0 0.0663556 0.000430531 0
0.108473 0.000626836 0 0.157569 0.000858574 0 0.21405 0.00113077 0 0.278217
0.0014485 0 0.350349 0.00181654 0 0.43069 0.0022389 0 0.519443 0.00271997
-0.00500166 0.61694 0.00326347 -0.0725741 0.723508 0.0038738 -0.210978 0.839483 0.00455599 -0.335223
0.965268 0.00531415 -0.416055 1.10139 0.00615256 -0.471948 1.24859 0.00708046 -0.53899 1.40722
0.0081077 -0.662725 1.578 0.00924419 -0.815104 1.76187 0.0105058 -0.955001 1.95946 0.0119118
-1.08949 2.17165 0.0134839 -1.24814 2.39935 0.0152472 -1.41098 2.6431 0.0172231 -1.56452
2.9022 0.0194248 -1.77783 3.1766 0.0218726 -2.02448 3.46777 0.0245985 -2.22999 3.77559
0.02756 -2.45317 4.09159 0.0307151 -2.73208 4.41111 0.0340797 -2.95521 4.73769 0.0377161
-3.16728 5.07526 0.0416737 -3.43539 5.42403 0.0460225 -3.70054 5.78338 0.050794 -3.97189
6.14892 0.0559772 -4.24918 6.51763 0.0616293 -4.5318 6.88923 0.0678101 -4.84387 7.26244
0.0745473 -5.1885 7.6358 0.0818307 -5.53405 8.00457 0.0896559 -5.88321 8.36328 0.098071
-6.24023 8.71272 0.107156 -6.62833 9.0538 0.116899 -7.00661 9.38015 0.127244 -7.41301
9.68824 0.13813 -7.85986 9.97184 0.149557 -8.27368 10.231 0.161513 -8.67352 10.468
0.174008 -9.09578 10.6788 0.187103 -9.50773 10.8649 0.200759 -9.91672 11.0244 0.214841
-10.3471 11.1536 0.229308 -10.7625 11.2572 0.244231 -11.1582 11.3363 0.25956 -11.5392
11.3877 0.275194 -11.9182 11.4152 0.291047 -12.249 11.4241 0.307081 -12.5629 11.4152
0.323382 -12.8757 11.3873 0.339674 -13.1646 11.3514 0.356744 -13.4287 11.2782 0.000112764
0 0.0306763 0 16.6 0 0.000243754 0 0.0673394 0.000399561 0
0.111369 0.000585532 0 0.163333 0.000806975 0 0.223595 0.00106905 0 0.292361
0.00137642 0 0.369809 0.00173334 0 0.456143 0.0021436 0 0.551489 0.00261076
0 0.656124 0.00313761 -0.0255049 0.770327 0.00372712 -0.121093 0.894374 0.00438274 -0.251062
1.02882 0.00510647 -0.349392 1.17398 0.00590283 -0.419069 1.33049 0.00677632 -0.483358 1.49907
0.0077345 -0.585549 1.67989 0.0087869 -0.739577 1.87409 0.00994432 -0.879516 2.08265 0.011222
-0.987846 2.30617 0.0126365 -1.0928 2.54541 0.0142143 -1.19576 2.80097 0.0159727 -1.31453
3.07238 0.0179166 -1.52001 3.35924 0.0200547 -1.77406 3.66331 0.0224035 -1.95396 3.98384
0.0249254 -2.14229 4.31139 0.027595 -2.40103 4.64373 0.0304351 -2.58781 4.98608 0.033486
-2.7872 5.34261 0.0368097 -3.01601 5.71397 0.0404669 -3.23264 6.09987 0.0444774 -3.47793
6.49575 0.0488475 -3.70857 6.8984 0.0536289 -3.94208 7.30736 0.0588899 -4.23008 7.72466
0.0646623 -4.55098 8.14815 0.070932 -4.83917 8.56832 0.077706 -5.17002 8.98316 0.0850372
-5.51897 9.39398 0.0929979 -5.87853 9.80065 0.101589 -6.26668 10.1969 0.110762 -6.66065
10.5762 0.120502 -7.0895 10.9322 0.130807 -7.52872 11.2622 0.141637 -7.9606 11.5669
0.153036 -8.43662 11.8423 0.165052 -8.90379 12.0883 0.177624 -9.36342 12.3027 0.19068
-9.8476 12.4806 0.204193 -10.302 12.6226 0.218178 -10.7594 12.7291 0.232624 -11.2206
12.8005 0.247403 -11.6532 12.8381 0.262421 -12.0594 12.8491 0.277667 -12.4433 12.8333
0.293239 -12.7949 12.7873 0.308809 -13.1386 12.729 0.325296 -13.466 12.6226 0.000100988
0 0.0298919 0 16.6 0 0.000220593 0 0.0667931 0.000365492 0
0.112135 0.000540935 0 0.166399 0.00075184 0 0.229764 0.00100335 0 0.302347
0.0012998 0 0.384223 0.00164484 0 0.475467 0.002042 0 0.57619 0.00249385
0 0.686564 0.00300248 -0.00374211 0.80684 0.00357052 -0.0500316 0.937307 0.00419911 -0.157365
1.07848 0.00488864 -0.271239 1.23072 0.00564495 -0.359112 1.39431 0.00646991 -0.422128 1.5701
0.0073674 -0.501306 1.75862 0.0083444 -0.647726 1.96058 0.00941125 -0.811795 2.17729 0.0105825
-0.940853 2.40912 0.0118689 -1.02992 2.65672 0.0132949 -1.09084 2.92081 0.0148771 -1.15659
3.20095 0.0166129 -1.30083 3.49677 0.0184999 -1.52641 3.80923 0.0205439 -1.72186 4.13707
0.0227094 -1.87704 4.47141 0.0249793 -2.07393 4.81174 0.0273732 -2.21019 5.1641 0.0299338
-2.38322 5.53337 0.0327114 -2.59172 5.92079 0.0357562 -2.78774 6.32635 0.0390945 -3.00016
6.74536 0.0427395 -3.17985 7.17439 0.0467347 -3.38197 7.6152 0.0511467 -3.6208 8.06997
0.0560224 -3.91699 8.53504 0.0613271 -4.17331 9.00064 0.0670968 -4.45083 9.4677 0.073372
-4.77629 9.9361 0.080218 -5.09859 10.4057 0.0876665 -5.47377 10.8732 0.0956725 -5.8699
11.3271 0.104248 -6.26804 11.7621 0.113381 -6.69735 12.1745 0.123039 -7.15968 12.5612
0.133275 -7.65956 12.9204 0.144137 -8.15167 13.2485 0.155582 -8.69605 13.5395 0.167558
-9.25972 13.7869 0.180027 -9.77005 13.9879 0.193016 -10.3112 14.143 0.206502 -10.8609
14.2512 0.220352 -11.3993 14.3113 0.234548 -11.903 14.3274 0.249015 -12.3889 14.3012
0.263825 -12.8502 14.2338 0.278667 -13.2484 14.1447 0.294622 -13.6544 13.9858 8.88022e-05
0 0.0285301 0 16.6 0 0.000197061 0 0.0652611 0.000331319 0
0.11157 0.000496619 0 0.167736 0.000697498 0 0.23372 0.000938236 0 0.309502
0.00122285 0 0.395025 0.00155469 0 0.490264 0.00193641 0 0.595292 0.00236996
0 0.710207 0.00285696 0 0.835252 0.00339941 -0.0113938 0.970679 0.0039974 -0.0678623
1.11679 0.00465156 -0.168433 1.27426 0.00536574 -0.276103 1.44322 0.00614144 -0.359747 1.62423
0.00698152 -0.425831 1.81844 0.00789074 -0.529934 2.02617 0.00888036 -0.690198 2.24858 0.00996352
-0.853739 2.48636 0.0111492 -0.969014 2.74012 0.0124564 -1.0397 3.01046 0.0139037 -1.09235
3.29672 0.0154836 -1.16362 3.59864 0.0171791 -1.35005 3.91628 0.0189894 -1.55294 4.24765