# vtk DataFile Version 2.0
sampleSurface
ASCII
DATASET POLYDATA
POINTS 17673 float
0.04 -0.184464 -0.06 0.04 -0.184464 -0.0559273 0.04 -0.188453 -0.0559273 0.04 -0.188453
-0.06 0.04 -0.180475 -0.06 0.04 -0.180475 -0.0559273 0.04 -0.176486 -0.06
0.04 -0.176486 -0.0559273 0.04 -0.172497 -0.06 0.04 -0.172497 -0.0559273 0.04
-0.168508 -0.06 0.04 -0.168508 -0.0559273 0.04 -0.164519 -0.06 0.04 -0.164519
-0.0559273 0.04 -0.16053 -0.06 0.04 -0.16053 -0.0559273 0.04 -0.156541 -0.06
0.04 -0.156541 -0.0559273 0.04 -0.152552 -0.06 0.04 -0.152552 -0.0559273 0.04
-0.148563 -0.06 0.04 -0.148563 -0.0559273 0.04 -0.144574 -0.06 0.04 -0.144574
-0.0559273 0.04 -0.140586 -0.06 0.04 -0.140586 -0.0559273 0.04 -0.136596 -0.06
0.04 -0.136596 -0.0559273 0.04 -0.132607 -0.06 0.04 -0.132607 -0.0559273 0.04
-0.128619 -0.06 0.04 -0.128619 -0.0559273 0.04 -0.12463 -0.06 0.04 -0.12463
-0.0559273 0.04 -0.120641 -0.06 0.04 -0.120641 -0.0559273 0.04 -0.116652 -0.06
0.04 -0.116652 -0.0559273 0.04 -0.112663 -0.06 0.04 -0.112663 -0.0559273 0.04
-0.108674 -0.06 0.04 -0.108674 -0.0559273 0.04 -0.104685 -0.06 0.04 -0.104685
-0.0559273 0.04 -0.100696 -0.06 0.04 -0.100696 -0.0559273 0.04 -0.0967069 -0.06
0.04 -0.0967069 -0.0559273 0.04 -0.0927179 -0.06 0.04 -0.0927179 -0.0559273 0.04
-0.088739 -0.06 0.04 -0.0887391 -0.0559273 0.04 -0.0847775 -0.06 0.04 -0.0847775
-0.0559273 0.04 -0.0809835 -0.06 0.04 -0.0809835 -0.0559273 0.04 -0.0773956 -0.06
0.04 -0.0773956 -0.0559273 0.04 -0.0739968 -0.06 0.04 -0.0739968 -0.0559273 0.04
-0.0707629 -0.06 0.04 -0.0707629 -0.0559273 0.04 -0.0676784 -0.06 0.04 -0.0676784
-0.0559273 0.04 -0.0647301 -0.06 0.04 -0.0647301 -0.0559273 0.04 -0.0619431 -0.06
0.04 -0.0619431 -0.0559273 0.04 -0.0593321 -0.06 0.04 -0.0593321 -0.0559273 0.04
-0.0568459 -0.06 0.04 -0.0568459 -0.0559273 0.04 -0.0544545 -0.06 0.04 -0.0544545
-0.0559273 0.04 -0.0521732 -0.06 0.04 -0.0521732 -0.0559273 0.04 -0.0500374 -0.06
0.04 -0.0500374 -0.0559273 0.04 -0.0480123 -0.06 0.04 -0.0480123 -0.0559273 0.04
-0.046084 -0.06 0.04 -0.046084 -0.0559273 0.04 -0.0442254 -0.06 0.04 -0.0442254
-0.0559273 0.04 -0.0424486 -0.06 0.04 -0.0424486 -0.0559273 0.04 -0.0407648 -0.06
0.04 -0.0407648 -0.0559273 0.04 -0.0391821 -0.06 0.04 -0.0391821 -0.0559273 0.04
-0.0376993 -0.06 0.04 -0.0376993 -0.0559273 0.04 -0.0362943 -0.06 0.04 -0.0362943
-0.0559273 0.04 -0.0349524 -0.06 0.04 -0.0349524 -0.0559273 0.04 -0.0336651 -0.06
0.04 -0.0336651 -0.0559273 0.04 -0.0324289 -0.06 0.04 -0.0324289 -0.0559273 0.04
-0.0312728 -0.06 0.04 -0.0312728 -0.0559273 0.04 -0.0301752 -0.06 0.04 -0.0301752
-0.0559273 0.04 -0.0291177 -0.06 0.04 -0.0291177 -0.0559273 0.04 -0.0281145 -0.06
0.04 -0.0281145 -0.0559273 0.04 -0.0271661 -0.06 0.04 -0.0271661 -0.0559273 0.04
-0.0262754 -0.06 0.04 -0.0262754 -0.0559273 0.04 -0.02543 -0.06 0.04 -0.02543
-0.0559273 0.04 -0.0246256 -0.06 0.04 -0.0246256 -0.0559273 0.04 -0.0238573 -0.06
0.04 -0.0238573 -0.0559273 0.04 -0.023094 -0.0559273 0.04 -0.023094 -0.06 0.04
-0.184464 -0.0519514 0.04 -0.188453 -0.0519514 0.04 -0.180475 -0.0519514 0.04 -0.176486
-0.0519514 0.04 -0.172497 -0.0519514 0.04 -0.168508 -0.0519514 0.04 -0.164519 -0.0519514
0.04 -0.16053 -0.0519514 0.04 -0.156541 -0.0519514 0.04 -0.152552 -0.0519514 0.04
-0.148563 -0.0519514 0.04 -0.144574 -0.0519514 0.04 -0.140586 -0.0519514 0.04 -0.136596
-0.0519514 0.04 -0.132607 -0.0519514 0.04 -0.128619 -0.0519514 0.04 -0.12463 -0.0519514
0.04 -0.120641 -0.0519514 0.04 -0.116652 -0.0519514 0.04 -0.112663 -0.0519514 0.04
-0.108674 -0.0519514 0.04 -0.104685 -0.0519514 0.04 -0.100696 -0.0519514 0.04 -0.0967069
-0.0519514 0.04 -0.0927179 -0.0519514 0.04 -0.088739 -0.0519514 0.04 -0.0847775 -0.0519514
0.04 -0.0809835 -0.0519514 0.04 -0.0773956 -0.0519514 0.04 -0.0739968 -0.0519514 0.04
-0.0707629 -0.0519514 0.04 -0.0676784 -0.0519514 0.04 -0.0647301 -0.0519514 0.04 -0.0619431
-0.0519514 0.04 -0.0593321 -0.0519514 0.04 -0.0568459 -0.0519514 0.04 -0.0544545 -0.0519514
0.04 -0.0521732 -0.0519514 0.04 -0.0500374 -0.0519514 0.04 -0.0480123 -0.0519514 0.04
-0.046084 -0.0519514 0.04 -0.0442254 -0.0519514 0.04 -0.0424486 -0.0519514 0.04 -0.0407648
-0.0519514 0.04 -0.0391821 -0.0519514 0.04 -0.0376993 -0.0519514 0.04 -0.0362943 -0.0519514
0.04 -0.0349524 -0.0519514 0.04 -0.0336651 -0.0519514 0.04 -0.0324289 -0.0519514 0.04
-0.0312728 -0.0519514 0.04 -0.0301752 -0.0519514 0.04 -0.0291177 -0.0519514 0.04 -0.0281145
-0.0519514 0.04 -0.0271661 -0.0519514 0.04 -0.0262754 -0.0519514 0.04 -0.02543 -0.0519514
0.04 -0.0246256 -0.0519514 0.04 -0.0238573 -0.0519514 0.04 -0.023094 -0.0519514 0.04
-0.184464 -0.0479754 0.04 -0.188453 -0.0479754 0.04 -0.180475 -0.0479754 0.04 -0.176486
-0.0479754 0.04 -0.172497 -0.0479754 0.04 -0.168508 -0.0479754 0.04 -0.164519 -0.0479754
0.04 -0.16053 -0.0479754 0.04 -0.156541 -0.0479754 0.04 -0.152552 -0.0479754 0.04
-0.148563 -0.0479754 0.04 -0.144574 -0.0479754 0.04 -0.140586 -0.0479754 0.04 -0.136596
-0.0479754 0.04 -0.132607 -0.0479754 0.04 -0.128619 -0.0479754 0.04 -0.12463 -0.0479754
0.04 -0.120641 -0.0479754 0.04 -0.116652 -0.0479754 0.04 -0.112663 -0.0479754 0.04
-0.108674 -0.0479754 0.04 -0.104685 -0.0479754 0.04 -0.100696 -0.0479754 0.04 -0.0967069
-0.0479754 0.04 -0.0927179 -0.0479754 0.04 -0.0887391 -0.0479754 0.04 -0.0847775 -0.0479754
0.04 -0.0809835 -0.0479754 0.04 -0.0773956 -0.0479754 0.04 -0.0739968 -0.0479754 0.04
-0.0707629 -0.0479754 0.04 -0.0676784 -0.0479754 0.04 -0.0647301 -0.0479754 0.04 -0.0619431
-0.0479754 0.04 -0.0593321 -0.0479754 0.04 -0.0568459 -0.0479754 0.04 -0.0544545 -0.0479754
0.04 -0.0521732 -0.0479754 0.04 -0.0500374 -0.0479754 0.04 -0.0480123 -0.0479754 0.04
-0.046084 -0.0479754 0.04 -0.0442254 -0.0479754 0.04 -0.0424486 -0.0479754 0.04 -0.0407648
-0.0479754 0.04 -0.0391821 -0.0479754 0.04 -0.0376993 -0.0479754 0.04 -0.0362943 -0.0479754
0.04 -0.0349524 -0.0479754 0.04 -0.0336651 -0.0479754 0.04 -0.0324289 -0.0479754 0.04
-0.0312728 -0.0479754 0.04 -0.0301752 -0.0479754 0.04 -0.0291177 -0.0479754 0.04 -0.0281145
-0.0479754 0.04 -0.0271661 -0.0479754 0.04 -0.0262754 -0.0479754 0.04 -0.02543 -0.0479754
0.04 -0.0246256 -0.0479754 0.04 -0.0238573 -0.0479754 0.04 -0.023094 -0.0479754 0.04
-0.184464 -0.0439994 0.04 -0.188453 -0.0439994 0.04 -0.180475 -0.0439994 0.04 -0.176486
-0.0439994 0.04 -0.172497 -0.0439994 0.04 -0.168508 -0.0439994 0.04 -0.164519 -0.0439994
0.04 -0.16053 -0.0439994 0.04 -0.156541 -0.0439994 0.04 -0.152552 -0.0439994 0.04
-0.148563 -0.0439994 0.04 -0.144574 -0.0439994 0.04 -0.140586 -0.0439994 0.04 -0.136596
-0.0439994 0.04 -0.132607 -0.0439994 0.04 -0.128619 -0.0439994 0.04 -0.12463 -0.0439994
0.04 -0.120641 -0.0439994 0.04 -0.116652 -0.0439994 0.04 -0.112663 -0.0439994 0.04
-0.108674 -0.0439994 0.04 -0.104685 -0.0439994 0.04 -0.100696 -0.0439994 0.04 -0.0967069
-0.0439994 0.04 -0.0927179 -0.0439994 0.04 -0.0887391 -0.0439994 0.04 -0.0847775 -0.0439994
0.04 -0.0809835 -0.0439994 0.04 -0.0773956 -0.0439994 0.04 -0.0739968 -0.0439994 0.04
-0.0707629 -0.0439994 0.04 -0.0676784 -0.0439994 0.04 -0.0647301 -0.0439994 0.04 -0.0619431
-0.0439994 0.04 -0.0593321 -0.0439994 0.04 -0.0568459 -0.0439994 0.04 -0.0544545 -0.0439994
0.04 -0.0521732 -0.0439994 0.04 -0.0500374 -0.0439994 0.04 -0.0480123 -0.0439994 0.04
-0.046084 -0.0439994 0.04 -0.0442254 -0.0439994 0.04 -0.0424486 -0.0439994 0.04 -0.0407648
-0.0439994 0.04 -0.0391821 -0.0439994 0.04 -0.0376993 -0.0439994 0.04 -0.0362943 -0.0439994
0.04 -0.0349524 -0.0439994 0.04 -0.0336651 -0.0439994 0.04 -0.0324289 -0.0439994 0.04
-0.0312728 -0.0439994 0.04 -0.0301752 -0.0439994 0.04 -0.0291177 -0.0439994 0.04 -0.0281145
-0.0439994 0.04 -0.0271661 -0.0439994 0.04 -0.0262754 -0.0439994 0.04 -0.02543 -0.0439994
0.04 -0.0246256 -0.0439994 0.04 -0.0238573 -0.0439994 0.04 -0.023094 -0.0439994 0.04
-0.184464 -0.0400235 0.04 -0.188453 -0.0400235 0.04 -0.180475 -0.0400235 0.04 -0.176486
-0.0400235 0.04 -0.172497 -0.0400235 0.04 -0.168508 -0.0400235 0.04 -0.164519 -0.0400235
0.04 -0.16053 -0.0400235 0.04 -0.156541 -0.0400235 0.04 -0.152552 -0.0400235 0.04
-0.148563 -0.0400235 0.04 -0.144574 -0.0400235 0.04 -0.140586 -0.0400235 0.04 -0.136596
-0.0400235 0.04 -0.132607 -0.0400235 0.04 -0.128619 -0.0400235 0.04 -0.12463 -0.0400235
0.04 -0.120641 -0.0400235 0.04 -0.116652 -0.0400235 0.04 -0.112663 -0.0400235 0.04
-0.108674 -0.0400235 0.04 -0.104685 -0.0400235 0.04 -0.100696 -0.0400235 0.04 -0.0967069
-0.0400235 0.04 -0.0927179 -0.0400235 0.04 -0.088739 -0.0400235 0.04 -0.0847775 -0.0400235
0.04 -0.0809835 -0.0400235 0.04 -0.0773956 -0.0400235 0.04 -0.0739968 -0.0400235 0.04
-0.0707629 -0.0400235 0.04 -0.0676784 -0.0400235 0.04 -0.0647301 -0.0400235 0.04 -0.0619431
-0.0400235 0.04 -0.0593321 -0.0400235 0.04 -0.0568459 -0.0400235 0.04 -0.0544545 -0.0400235
0.04 -0.0521732 -0.0400235 0.04 -0.0500374 -0.0400235 0.04 -0.0480123 -0.0400235 0.04
-0.046084 -0.0400235 0.04 -0.0442254 -0.0400235 0.04 -0.0424486 -0.0400235 0.04 -0.0407648
-0.0400235 0.04 -0.0391821 -0.0400235 0.04 -0.0376993 -0.0400235 0.04 -0.0362943 -0.0400235
0.04 -0.0349524 -0.0400235 0.04 -0.0336651 -0.0400235 0.04 -0.0324289 -0.0400235 0.04
-0.0312728 -0.0400235 0.04 -0.0301752 -0.0400235 0.04 -0.0291177 -0.0400235 0.04 -0.0281145
-0.0400235 0.04 -0.0271661 -0.0400235 0.04 -0.0262754 -0.0400235 0.04 -0.02543 -0.0400235
0.04 -0.0246256 -0.0400235 0.04 -0.0238573 -0.0400235 0.04 -0.023094 -0.0400235 0.04
-0.184464 -0.0360475 0.04 -0.188453 -0.0360475 0.04 -0.180475 -0.0360475 0.04 -0.176486
-0.0360475 0.04 -0.172497 -0.0360475 0.04 -0.168508 -0.0360475 0.04 -0.164519 -0.0360475
0.04 -0.16053 -0.0360475 0.04 -0.156541 -0.0360475 0.04 -0.152552 -0.0360475 0.04
-0.148563 -0.0360475 0.04 -0.144574 -0.0360475 0.04 -0.140586 -0.0360475 0.04 -0.136596
-0.0360475 0.04 -0.132607 -0.0360475 0.04 -0.128619 -0.0360475 0.04 -0.12463 -0.0360475
0.04 -0.120641 -0.0360475 0.04 -0.116652 -0.0360475 0.04 -0.112663 -0.0360475 0.04
-0.108674 -0.0360475 0.04 -0.104685 -0.0360475 0.04 -0.100696 -0.0360475 0.04 -0.0967069
[...]
POINT_DATA 17673
FIELD attributes 1
p 1 17673 float
43.85 43.5488 43.6976 44.1 43.45 43.2994 43.25 43.1496 43.15 43.0496 43
42.9498 42.85 42.85 42.8 42.7749 42.75 42.7249 42.65 42.65 42.55
42.55 42.5 42.5 42.45 42.45 42.35 42.35 42.3 42.3 42.25
42.25 42.15 42.15 42.05 42.0751 41.95 42.0002 41.9 41.9251 41.8
41.8251 41.65 41.7002 41.55 41.6002 41.4 41.4502 41.1999 41.2753 40.9498
41.0503 40.6484 40.7747 40.3481 40.4741 39.9471 40.0992 39.498 39.6744 38.9973
39.1743 38.4228 38.5868 37.8219 37.9614 37.0959 37.2483 36.2971 36.4491 35.4225
35.5869 34.4722 34.6367 33.4457 33.6237 32.3469 32.5493 31.1971 31.4121 29.998
30.2126 28.7475 28.9624 27.4472 27.6622 26.0969 26.2995 24.7222 24.9121 23.3479
23.5249 21.9483 22.1 20.5236 20.6374 19.0987 19.1748 17.698 17.7115 16.2736
16.2114 14.8742 14.7237 13.4989 13.2353 12.124 11.7347 10.799 10.2626 9.53183
8.8091 8.31445 7.37411 7.12455 5.94775 5.985 4.52005 3.13303 4.86889 43.225
43.25 43.15 43.05 42.95 42.9 42.85 42.75 42.675 42.625 42.55
42.475 42.425 42.35 42.2875 42.2375 42.15 42.1 42.05 41.95 41.85
41.75 41.65 41.525 41.375 41.1749 40.9493 40.6735 40.3237 39.9236 39.4486
38.886 38.2607 37.5979 36.8483 36.0237 35.1234 34.1478 33.1233 32.036 30.8739
29.6613 28.3985 27.0734 25.711 24.3364 22.9241 21.4743 20.0118 18.5239 16.9993
15.4746 13.9494 12.4119 10.8782 9.33082 7.77965 6.23347 4.65876 3.13181 43.1
43.1 43.075 43 42.9 42.85 42.8 42.725 42.65 42.575 42.525
42.45 42.4 42.35 42.2875 42.2375 42.15 42.1 42.05 41.975 41.9
41.8 41.7 41.6 41.475 41.2999 41.0993 40.8739 40.5737 40.2239 39.7986
39.3113 38.7607 38.1482 37.486 36.7363 35.9235 35.0229 34.0735 33.0736 31.9865
30.8488 29.6611 28.3984 27.0861 25.7614 24.4116 23.0118 21.5868 20.1365 18.6493
17.1621 15.6869 14.212 12.7369 11.2583 9.78843 8.33724 6.88377 5.45546 43
43 42.975 42.925 42.85 42.8 42.75 42.7 42.65 42.55 42.5
42.45 42.4 42.35 42.3 42.25 42.175 42.125 42.075 42.025 41.975
41.9 41.8 41.725 41.65 41.5249 41.3493 41.1492 40.9241 40.649 40.2989
39.899 39.4486 38.9485 38.3862 37.749 37.0613 36.2982 35.4736 34.5737 33.5991
32.5739 31.4862 30.3111 29.0862 27.849 26.5742 25.2368 23.8619 22.449 20.9993
19.5496 18.0869 16.5994 15.112 13.6371 12.1684 10.7085 9.23627 7.79466 42.95
42.95 42.925 42.875 42.825 42.775 42.725 42.675 42.625 42.55 42.5
42.45 42.4 42.35 42.3 42.25 42.2 42.175 42.125 42.075 42.05
42 41.925 41.9 41.85 41.775 41.6745 41.5244 41.3744 41.1742 40.9243
40.6493 40.324 39.9739 39.5741 39.0867 38.5365 37.9487 37.2864 36.524 35.7118
34.824 33.8614 32.8363 31.7613 30.6491 29.4617 28.2244 26.9494 25.6116 24.2494
22.8746 21.4619 20.0119 18.5495 17.0996 15.6497 14.1997 12.725 11.2842 42.875
42.9 42.85 42.825 42.8 42.75 42.7 42.65 42.6 42.55 42.5
42.45 42.4 42.35 42.3 42.275 42.225 42.2 42.175 42.15 42.15
42.125 42.1 42.1 42.075 42.05 42.0248 41.9748 41.9248 41.8245 41.6997
41.5746 41.3994 41.1994 40.9745 40.6745 40.2993 39.8991 39.4367 38.8742 38.2494
37.5367 36.7491 35.9115 35.0115 34.0492 33.0118 31.912 30.762 29.5366 28.2744
26.9871 25.637 24.2495 22.8495 21.4371 19.9997 18.5623 17.1 15.6736 42.825
42.85 42.8 42.8 42.775 42.725 42.7 42.65 42.6 42.55 42.5
42.45 42.4 42.35 42.3 42.3 42.275 42.225 42.2 42.2 42.225
42.25 42.25 42.275 42.3 42.325 42.3752 42.4252 42.4752 42.5 42.5251
42.5751 42.5749 42.55 42.4998 42.3998 42.2747 42.0996 41.8621 41.537 41.1622
40.712 40.1744 39.5868 38.9117 38.1493 37.3245 36.4245 35.4495 34.3992 33.2995
32.1496 30.9245 29.6495 28.337 26.9996 25.6247 24.2373 22.8 21.3961 42.8
42.8 42.8 42.775 42.725 42.7 42.675 42.625 42.6 42.55 42.5
42.45 42.4 42.35 42.3 42.3 42.3 42.275 42.25 42.25 42.275
42.325 42.3751 42.4501 42.5251 42.6002 42.7257 42.8758 43.0258 43.201 43.401
43.6261 43.8261 43.9762 44.1262 44.2763 44.4013 44.4764 44.489 44.4517 44.3894
44.2519 44.027 43.7271 43.3523 42.8901 42.3278 41.6906 40.9783 40.1657 39.2785
38.3288 37.2913 36.1789 35.0041 33.7918 32.5294 31.2296 29.8549 28.53 42.8
42.8 42.8 42.75 42.7 42.7 42.65 42.6 42.5749 42.5249 42.5
42.45 42.4 42.35 42.3 42.3 42.3 42.3 42.3 42.3 42.3251
42.4002 42.5002 42.6002 42.7253 42.8755 43.0764 43.3268 43.5769 43.8773 44.2526
44.6277 45.0033 45.3787 45.754 46.1542 46.555 46.9308 47.2564 47.5445 47.8202
48.0461 48.197 48.2604 48.2614 48.1872 47.9882 47.7141 47.3525 46.8657 46.2793
45.6177 44.8433 43.9691 43.0197 41.9953 40.8958 39.7464 38.4969 37.3019 42.8
42.8 42.8 42.75 42.7 42.7 42.65 42.6 42.55 42.5 42.4747
42.4247 42.4 42.35 42.3 42.3 42.3 42.3 42.3 42.3253 42.3754
42.45 42.55 42.6754 42.8507 43.0761 43.3525 43.6784 44.0546 44.4808 44.9819
45.5079 46.0603 46.6623 47.2637 47.8909 48.5686 49.272 49.95 50.5784 51.2324
51.8742 52.454 52.9715 53.4013 53.7688 54.0496 54.2171 54.2848 54.2402 54.0702
53.8002 53.3922 52.859 52.2257 51.4669 50.6076 49.6727 48.6001 47.5874 42.8
42.8 42.8 42.75 42.7 42.7 42.65 42.6 42.55 42.5 42.45
42.4 42.4 42.35 42.3 42.3 42.3 42.3 42.3 42.35 42.4
42.4628 42.5883 42.7511 42.9511 43.2012 43.528 43.93 44.4315 44.9825 45.5582
46.2098 46.9374 47.7151 48.5172 49.37 50.2734 51.2274 52.2316 53.2249 54.2423
55.2861 56.3058 57.2885 58.1969 59.0553 59.8636 60.5479 61.1452 61.6428 61.9903
62.2119 62.2706 62.1666 61.9238 61.5311 60.9874 60.3179 59.4854 58.6686 42.8
42.8 42.8 42.75 42.7 42.7 42.65 42.6 42.55 42.5 42.45
42.4 42.4 42.35 42.3 42.3 42.3 42.3 42.3 42.35 42.4254
42.513 42.6377 42.8 43.0254 43.3008 43.678 44.1541 44.7043 45.3296 45.9802
46.7187 47.5703 48.4717 49.4218 50.4606 51.563 52.7161 53.9677 55.2572 56.5849
57.9763 59.3805 60.8107 62.2162 63.546 64.8515 66.0826 67.2389 68.3213 69.253
70.0348 70.6419 71.0613 71.2929 71.3362 71.166 70.8203 70.274 69.6844 42.8
42.8 42.8 42.75 42.7 42.7 42.65 42.6 42.55 42.5 42.45
42.4 42.4 42.35 42.3 42.3 42.3 42.3 42.3 42.35 42.45
42.55 42.65 42.8253 43.0753 43.3754 43.8028 44.3033 44.8791 45.5542 46.2795
47.0926 48.0061 48.982 50.0446 51.2198 52.4711 53.8113 55.2621 56.7634 58.3395
60.0171 61.7452 63.5483 65.3763 67.1547 68.959 70.7387 72.4565 74.125 75.6679
77.0864 78.3304 79.3616 80.1801 80.7608 81.0661 81.1205 80.8862 80.5557 42.8
42.8 42.8 42.7752 42.7252 42.7 42.65 42.6 42.55 42.5 42.4752
42.4252 42.4 42.35 42.3 42.3 42.3 42.3 42.3 42.35 42.45
42.55 42.6752 42.8752 43.1253 43.438 43.8648 44.3783 45.004 45.7035 46.4536
47.3291 48.2926 49.3186 50.4679 51.7301 53.0941 54.571 56.1453 57.8082 59.5837
61.4856 63.4877 65.5774 67.7294 69.9186 72.1454 74.4106 76.6892 78.957 81.1358
83.2148 85.1831 86.9514 88.4693 89.7245 90.6544 91.2464 91.4249 91.3936 42.8
42.8 42.8 42.8 42.75 42.7 42.6752 42.6252 42.5752 42.5252 42.5
42.45 42.4 42.3752 42.3252 42.3 42.3 42.3 42.3252 42.3752 42.45
42.55 42.7 42.9 43.1501 43.4878 43.915 44.4539 45.0786 45.7786 46.5537
47.4541 48.4674 49.5434 50.7425 52.067 53.5054 55.0571 56.7065 58.4818 60.4064
62.4703 64.6718 66.9984 69.4122 71.9001 74.4639 77.1284 79.8934 82.7227 85.538
88.3044 91.0345 93.6271 96.0335 98.0756 99.7177 101.175 101.89 102.257 42.8
42.8 42.8 42.8 42.7751 42.7251 42.7 42.65 42.6 42.55 42.5
42.4751 42.4251 42.4 42.3751 42.3502 42.3502 42.3502 42.3751 42.4 42.45
42.55 42.7 42.9 43.1501 43.5002 43.9524 44.5036 45.1287 45.8286 46.6287
47.5414 48.5547 49.6682 50.9045 52.2536 53.7297 55.3441 57.068 58.9178 60.917
63.0679 65.394 67.8825 70.4703 73.1575 75.9953 78.9709 82.0971 85.3752 88.7512
92.1904 95.6692 99.249 102.552 105.531 108.287 110.792 112.295 113.128 42.8503
42.8505 42.8251 42.8 42.8 42.75 42.7 42.6751 42.6251 42.5751 42.5251
42.5 42.4751 42.4251 42.4 42.4 42.4 42.4 42.4 42.4251 42.5003
42.6003 42.7503 42.9502 43.2003 43.5505 44.0027 44.5412 45.1663 45.8787 46.6788
47.5913 48.6048 49.7309 50.9668 52.3287 53.8421 55.4812 57.2425 59.1423 61.1788
63.3799 65.7808 68.3439 71.0317 73.856 76.8558 80.031 83.4068 87.0097 90.7848
94.7356 98.7881 103.165 107.521 111.778 115.781 119.538 122.546 124.383 42.9
42.9 42.8751 42.8251 42.8 42.7751 42.7251 42.7 42.6751 42.6251 42.5751
42.5502 42.5251 42.4751 42.4502 42.4502 42.4502 42.4502 42.4502 42.5002 42.6001
42.7001 42.8251 43.0125 43.2626 43.6002 44.0525 44.5911 45.2037 45.9163 46.7161
47.6164 48.6424 49.7682 50.9918 52.3662 53.8794 55.5062 57.2799 59.2045 61.2659
63.5044 65.9301 68.5182 71.2557 74.1422 77.2166 80.4913 84.004 87.7812 91.7803
96.055 100.646 105.51 110.762 116.264 121.769 127.527 132.782 136.879 42.9
42.9 42.9 42.8751 42.8251 42.8 42.7751 42.7251 42.7 42.6751 42.6376
42.6125 42.5751 42.5501 42.5501 42.5501 42.5501 42.5501 42.5501 42.6001 42.7001
42.8001 42.9001 43.0877 43.3502 43.6628 44.1027 44.6539 45.2662 45.9538 46.7538
47.6412 48.6551 49.7933 51.0169 52.3786 53.8794 55.5063 57.28 59.192 61.2533
63.5042 65.9299 68.518 71.2679 74.1667 77.2534 80.553 84.103 87.9299 92.0035
96.4025 101.354 106.504 112.005 118.255 125.257 133.011 140.513 148.594 42.9
42.9 42.9 42.9 42.875 42.8375 42.8125 42.775 42.7501 42.7501 42.7125
42.6625 42.6501 42.6501 42.6501 42.6501 42.6501 42.6501 42.6626 42.7126 42.8001
42.9001 43.0251 43.2251 43.4876 43.8128 44.2274 44.7539 45.3535 46.0161 46.8038
47.6913 48.68 49.806 51.0419 52.3911 53.8669 55.4813 57.255 59.1545 61.1909
63.4293 65.8424 68.4055 71.143 74.0292 77.091 80.378 83.9029 87.6923 91.7283
96.0771 100.928 106.003 111.629 118.379 126.004 135.757 146.508 162.127 42.9
42.9 42.9 42.9 42.9 42.8875 42.8625 42.85 42.825 42.8 42.775
42.75 42.75 42.75 42.75 42.75 42.75 42.75 42.7875 42.8625 42.95
43.05 43.2 43.4 43.6376 43.9627 44.3647 44.8661 45.4535 46.1035 46.8662
47.7412 48.7299 49.8308 51.0545 52.391 53.8419 55.4438 57.1925 59.0795 61.1034
63.3168 65.705 68.2431 70.9431 73.7919 76.8036 80.0282 83.4906 87.1925 91.1286
95.3276 100.004 104.878 110.254 116.378 122.753 130.754 136.625 144.249 -10.1553
-9.08911 -10.4055 -11.537 -11.597 -12.8074 -13.6448 -14.5931 -16.1655 -16.9284 -19.3299
-19.9362 -23.4149 -23.8672 -28.7762 -29.1349 -35.9082 -36.2421 -44.86 -45.2843 -55.7257
-56.2822 -68.0935 -68.8052 -80.973 -81.8299 -93.0317 -93.9547 -103.013 -103.617 -111.057
-110.92 -117.03 -116.4 -122.018 -120.759 -126.51 -124.25 -126.994 -129.998 -9.88591
-11.1304 -12.3861 -14.0496 -16.311 -19.2951 -23.2274 -28.533 -35.7763 -45.0564 -56.3676
-69.2553 -82.6709 -95.029 -104.672 -111.67 -116.902 -121.014 -123.755 -125.996 -7.33824
-8.64152 -10.0823 -11.9223 -14.3359 -17.4948 -21.639 -27.1697 -34.6742 -44.2941 -56.0185
-69.3859 -83.3545 -96.0708 -106.098 -113.802 -119.526 -123.886 -126.882 -129.494 -4.67454
-6.02896 -7.54678 -9.46781 -11.9933 -15.2801 -19.5749 -25.3178 -33.1228 -43.1813 -55.4838
-69.5435 -84.2651 -97.7337 -108.098 -116.181 -122.405 -126.889 -130.132 -132.989 -0.847653
-2.23982 -3.84957 -5.85476 -8.48794 -11.9383 -16.4489 -22.4909 -30.708 -41.3176 -54.3355
-69.2911 -84.9942 -99.4817 -110.612 -119.053 -125.656 -130.639 -134.255 -137.235 3.79445
2.35648 0.650196 -1.4483 -4.18416 -7.79511 -12.5408 -18.9124 -27.5917 -38.8296 -52.689
-68.7279 -85.677 -101.419 -113.625 -122.815 -129.777 -135.14 -139.131 -142.352 9.61659
8.1413 6.32296 4.11738 1.2555 -2.53637 -7.5351 -14.2414 -23.4136 -35.3783 -50.2295
-67.528 -85.9523 -103.219 -116.638 -126.691 -134.549 -140.51 -144.881 -148.343 16.5266
15.0159 13.0859 10.7806 7.78087 3.78629 -1.48565 -8.55132 -18.2491 -30.9972 -46.9025
-65.5918 -85.718 -104.716 -119.673 -130.829 -139.537 -146.272 -151.134 -154.966 24.6679
23.1194 21.0696 18.6435 15.508 11.3053 5.74428 -1.71295 -11.9625 -25.4704 -42.4464
-62.5831 -84.5843 -105.727 -122.567 -135.361 -145.055 -152.401 -157.891 -162.339 33.8497
32.2481 30.0491 27.4834 24.1934 19.77 13.8986 6.05379 -4.70552 -18.926 -36.9201
-58.466 -82.3557 -105.83 -124.869 -139.375 -150.468 -158.813 -165.056 -170.123 43.4525
41.7814 39.368 36.6491 33.1967 28.5319 22.3561 14.1306 2.90871 -11.9233 -30.7349
-53.4303 -78.9835 -104.556 -125.749 -142.286 -154.986 -164.714 -171.818 -177.523 52.6805
50.9396 48.3155 45.4105 41.7453 36.826 30.3292 21.7201 10.0793 -5.22605 -24.6118
-48.1159 -74.8915 -102.191 -125.416 -144.163 -158.595 -169.562 -177.549 -183.748 61.5297
59.6904 56.8159 53.6877 49.7771 44.5449 37.7091 28.7343 16.7055 1.00035 -18.7863
-42.8024 -70.3807 -99.1244 -124.177 -144.926 -161.244 -173.56 -182.286 -189.124 70.0395
68.0435 64.8449 61.4152 57.1801 51.5655 44.3322 35.0058 22.6336 6.6205 -13.3984
-37.6777 -65.6716 -95.4523 -121.82 -144.329 -162.742 -176.558 -186.038 -193.621 78.289
76.0347 72.4489 68.6845 64.0909 58.0662 50.3873 40.6278 27.901 11.6142 -8.58125
-32.94 -61.0564 -91.3414 -118.724 -142.966 -163.514 -179.333 -190.294 -198.491 86.3153
83.6415 79.4664 75.2013 70.1195 63.6531 55.6058 45.5194 32.5187 16.029 -4.28578
-28.6281 -56.6559 -86.883 -114.74 -140.227 -162.652 -180.961 -194.05 -203.377 94.1334
90.8578 86.1504 81.437 75.7694 68.6993 60.1386 49.6315 36.3381 19.6997 -0.628959
-24.8976 -52.7536 -82.805 -110.777 -136.979 -160.909 -182.114 -198.7 -210.991 101.887
97.0209 91.337 86.1777 80.2102 72.9361 64.0952 53.2531 39.7088 22.9471 2.63585
-21.4756 -49.0524 -78.8013 -106.45 -132.605 -156.897 -180.493 -200.815 -219.528 109.301
103.384 97.0005 90.6424 83.6907 76.0293 66.9792 55.9439 42.2891 25.4782 5.18948
-18.7892 -46.1319 -75.592 -102.902 -128.867 -152.903 -177.491 -199.05 -230.656 112.095
105.02 101.022 95.0745 87.4709 79.3177 69.9537 58.6638 44.8655 28.0107 7.75666
-16.0859 -43.1558 -72.2308 -98.9918 -124.765 -148.016 -173.41 -189.696 -239.1 102.999
101.256 96.5724 89.2367 81.11 71.724 60.3773 46.5336 29.6819 9.47753 -14.2401
-41.0833 -69.7999 -95.9174 -121.277 -143.654 -169.41 -180.737 -246.026 3.6254 1.86729
2.02628 0.486977 0.074267 -1.20625 -2.13226 -3.19259 -4.72485 -5.57225 -7.84946 -8.49698
-11.6274 -12.1217 -16.216 -16.6645 -21.9249 -22.3731 -28.6925 -29.1765 -36.1569 -36.7124
-43.6799 -44.2444 -50.5082 -50.8912 -55.8354 -55.8712 -59.9291 -59.4954 -63.0414 -62.0949
-65.432 -63.962 -67.279 -65.3204 -66.2693 -68.5487 1.78221 0.457932 -1.1136 -3.01159
-5.33032 -8.21926 -11.8522 -16.5126 -22.4472 -29.5387 -37.3885 -45.1597 -51.8401 -56.5688
-59.8205 -62.0473 -63.5413 -64.5008 -65.246 4.02266 2.48434 0.731303 -1.34905 -3.88261
-7.01247 -10.911 -15.8861 -22.2462 -29.8522 -38.2315 -46.5036 -53.5854 -58.57 -61.9821
-64.3585 -66.0155 -67.1002 -67.9927 6.29405 4.65611 2.79866 0.589847 -2.11328 -5.46263
-9.65992 -15.023 -21.8964 -30.1687 -39.3152 -48.3545 -56.0488 -61.4243 -65.0843 -67.647
-69.4525 -70.687 -71.6616 9.72511 7.97546 6.00162 3.64298 0.732105 -2.90075 -7.49251
-13.4057 -20.9837 -30.147 -40.3384 -50.4718 -59.0939 -65.0803 -69.1468 -71.9819 -73.9628
-75.3477 -76.4054 14.0365 12.1603 10.069 7.54858 4.40175 0.452694 -4.57949 -11.1269
-19.5851 -29.8774 -41.4448 -53.0458 -62.95 -69.8278 -74.4624 -77.6191 -79.7735 -81.2955
-82.444 19.6994 17.6949 15.4568 12.754 9.35143 5.04096 -0.502773 -7.78942 -17.2832
-28.9721 -42.2886 -55.8443 -67.5608 -75.743 -81.2158 -84.9185 -87.4076 -89.1159 -90.3911
26.7789 24.6281 22.2407 19.3543 15.6689 10.9616 4.85969 -3.25618 -13.9406 -27.2508
-42.6645 -58.6893 -72.9088 -83.0098 -89.7672 -94.2836 -97.2459 -99.2677 -100.773 35.5093
33.1988 30.6727 27.599 23.6015 18.4656 11.7505 2.74362 -9.20396 -24.2995 -42.1111
-61.1732 -78.6866 -91.552 -100.296 -106.156 -110.012 -112.627 -114.42 45.7762 43.317
40.6376 37.3604 33.0583 27.4639 20.1015 10.1843 -3.02804 -19.8947 -40.2125 -62.6316
-84.2211 -100.922 -112.665 -120.617 -125.976 -129.594 -131.987 56.8493 54.2395 51.3938
47.9013 43.2689 37.1996 29.2133 18.4421 4.06755 -14.3363 -36.824 -62.4204 -88.3073
-109.659 -125.627 -136.697 -144.18 -149.304 -152.805 67.8764 65.0799 62.0502 58.3219
53.3353 46.7847 38.1784 26.6119 11.2784 -8.28847 -32.3982 -60.5053 -90.1701 -116.136
-136.996 -152.435 -163.133 -170.369 -175.36 78.7495 75.7174 72.4479 68.3967 62.9614
55.8564 46.5918 34.2761 18.1443 -2.26985 -27.4629 -57.2752 -89.9314 -119.915 -145.785
-166.437 -181.637 -192.235 -199.709 89.5638 86.218 82.6395 78.1773 72.1714 64.4105
54.4451 41.3881 24.5394 3.47018 -22.3852 -53.1787 -87.7497 -120.832 -151.439 -177.844
-198.377 -213.341 -224.439 100.283 96.3445 92.4128 87.4018 80.6625 72.1463 61.4728
47.7231 30.2773 8.75483 -17.458 -48.655 -84.1834 -119.379 -153.827 -185.739 -212.531
-233.235 -249.185 111.051 106.371 102.083 96.5282 88.7696 79.3061 67.8026 53.3171
35.3174 13.4629 -12.8928 -44.0969 -79.8667 -115.964 -152.59 -188.502 -221.544 -249.487
-272.319 122.044 116.055 110.798 104.565 95.7122 85.3337 73.134 58.0384 39.5854
17.5071 -8.86777 -39.9047 -75.433 -111.427 -148.832 -187.385 -226.058 -262.269 -294.952
134.282 126.056 119.3 112.199 102.202 90.6352 77.7263 62.1187 43.2962 21.0768
-5.20197 -35.9047 -70.841 -106.079 -143.083 -181.856 -223.554 -265.993 -313.639 146
133.527 125.287 118.059 107.276 94.6716 81.207 65.2342 46.1719 23.8731 -2.28618
-32.6742 -67.0996 -101.558 -137.712 -175.366 -217.297 -260.334 -325.643 161.503 142.67
131.651 123.551 111.852 98.528 84.5726 68.2566 49.0005 26.6722 0.6606 -29.3495
-63.1215 -96.6314 -131.73 -167.349 -208.207 -242.476 -317.991 172.009 149.8 136.775
127.552 115.1 101.306 86.9475 70.3321 50.9149 28.5505 2.63842 -27.0894 -60.3395
-93.0858 -127.376 -161.246 -200.972 -227.782 -341.531 -69.1997 -67.1296 -69.3497 -67.8567
-69.3247 -68.2959 -69.4246 -68.697 -69.5496 -69.0729 -69.6247 -69.3737 -69.6996 -69.5992
-69.7496 -69.7496 -69.7496 -69.8374 -69.7246 -69.8626 -69.6245 -69.8001 -69.4495 -69.6502
-69.2495 -69.4502 -68.9995 -69.1876 -68.6744 -68.8375 -68.2744 -68.3999 -67.8243 -67.9122
-67.3493 -67.3869 -66.8242 -66.7991 -66.2492 -66.1864 -65.6492 -65.5487 -65.0491 -64.8985
-64.4489 -64.2607 -63.8488 -63.6355 -63.2987 -63.0353 -62.7987 -62.485 -62.3735 -62.0222
-62.0484 -61.672 -61.8481 -61.4467 -61.8229 -61.3964 -61.9228 -61.5088 -62.2225 -61.8211
-62.7724 -62.3709 -63.547 -63.1582 -64.5717 -64.2331 -65.8717 -65.5957 -67.4715 -67.2708
-69.3461 -69.2458 -71.5205 -71.5207 -74.0208 -74.1338 -76.7957 -77.0467 -79.7704 -80.1971
-82.9201 -83.5601 -86.2203 -87.086 -89.5209 -90.6373 -92.6962 -94.1136 -95.5966 -97.4027
-98.0473 -100.405 -99.8233 -102.921 -100.749 -104.887 -100.751 -106.142 -99.9018 -106.347
-98.6266 -105.712 -97.127 -104.464 -95.3773 -102.463 -93.503 -99.8996 -91.7027 -97.184
-90.2522 -94.6173 -89.4515 -92.6879 -89.5256 -91.7963 -90.5746 -92.0803 -92.5238 -93.4902
-95.0991 -95.7516 -97.9236 -98.3632 -100.673 -100.962 -102.999 -103.25 -104.749 -104.876
-106.001 -106.001 -107.001 -107.001 -107.751 -107.501 -108.002 -107.375 -108.251 -107.624
-108.75 -108.749 -109.998 -110.875 -112.747 -114.376 -116.493 -118.5 -118.749 -120.63
-117.505 -119.509 -112.766 -115.645 -107.014 -110.772 -105.005 -108.39 -106.999 -109.507
-109.995 -111.753 -111.751 -112.755 -112.002 -112.504 -112.75 -112.877 -114.748 -114.749
-117.994 -118.121 -121.993 -122.496 -125.746 -126.624 -128.249 -129.503 -129.001 -130.756
-127.754 -129.884 -122.76 -125.389 -112.517 -115.771 -97.9451 -101.449 -81.6208 -85.1117
-65.9703 -69.4488 -52.6432 -56.0974 -42.2911 -45.6584 -34.6612 -37.9742 -29.2866 -32.5672
-25.7589 -28.8398 -23.2069 -25.9499 -20.8816 -23.2363 -18.3816 -20.348 -15.5546 -17.1829
-12.4031 -13.7809 -9.00392 -10.2454 -5.40808 -6.61707 -1.65517 -2.89799 2.188 0.867441
6.14098 4.68508 10.3291 8.6313 14.7769 12.6982 19.152 16.6085 22.7515 19.7695
24.8758 21.5682 25.275 21.7921 24.0244 20.5289 21.4488 18.0536 17.9734 14.7699
13.9982 11.0439 9.85308 7.1356 5.70278 3.21107 1.68452 -0.598884 -2.11804 -4.2138
-5.6548 -7.5981 -8.90224 -10.719 -11.8274 -13.5313 -14.4522 -16.0559 -16.7271 -18.2681
-18.6269 -20.1052 -20.2016 -21.5672 -21.3514 -22.6042 -22.0262 -23.1662 -22.226 -23.2407
-22.0008 -22.9028 -21.4007 -22.24 -20.4506 -21.2524 -19.2006 -19.9522 -17.7256 -18.402
-16.0756 -16.6644 -14.3256 -14.8516 -12.5756 -13.0641 -10.9032 -11.3152 -9.39812 -9.67739
-8.0404 -8.19071 -6.78774 -6.82537 -5.61505 -5.55502 -4.49486 -4.35344 -3.38972 -3.1932
-2.25457 -2.04303 -1.07732 -0.888025 0.119634 0.265124 1.29479 1.39368 2.41027 2.4741
3.45519 3.49273 4.41764 4.43514 5.2901 5.29258 6.07757 6.06627 6.7826 6.75626
7.41009 7.36497 7.9601 7.89619 8.4401 8.35615 8.85261 8.74487 9.19509 9.0623
9.47756 9.31722 9.71001 9.51586 9.89744 9.66696 10.0399 9.77057 10.1498 9.82414
10.1998 9.80895 10.1497 9.71131 10.0347 9.55618 9.88214 9.34602 9.6646 9.04581