# vtk DataFile Version 2.0
sampleSurface
ASCII
DATASET POLYDATA
POINTS 17673 float
0.04 -0.184464 -0.06 0.04 -0.184464 -0.0559273 0.04 -0.188453 -0.0559273 0.04 -0.188453
-0.06 0.04 -0.180475 -0.06 0.04 -0.180475 -0.0559273 0.04 -0.176486 -0.06
0.04 -0.176486 -0.0559273 0.04 -0.172497 -0.06 0.04 -0.172497 -0.0559273 0.04
-0.168508 -0.06 0.04 -0.168508 -0.0559273 0.04 -0.164519 -0.06 0.04 -0.164519
-0.0559273 0.04 -0.16053 -0.06 0.04 -0.16053 -0.0559273 0.04 -0.156541 -0.06
0.04 -0.156541 -0.0559273 0.04 -0.152552 -0.06 0.04 -0.152552 -0.0559273 0.04
-0.148563 -0.06 0.04 -0.148563 -0.0559273 0.04 -0.144574 -0.06 0.04 -0.144574
-0.0559273 0.04 -0.140586 -0.06 0.04 -0.140586 -0.0559273 0.04 -0.136596 -0.06
0.04 -0.136596 -0.0559273 0.04 -0.132607 -0.06 0.04 -0.132607 -0.0559273 0.04
-0.128619 -0.06 0.04 -0.128619 -0.0559273 0.04 -0.12463 -0.06 0.04 -0.12463
-0.0559273 0.04 -0.120641 -0.06 0.04 -0.120641 -0.0559273 0.04 -0.116652 -0.06
0.04 -0.116652 -0.0559273 0.04 -0.112663 -0.06 0.04 -0.112663 -0.0559273 0.04
-0.108674 -0.06 0.04 -0.108674 -0.0559273 0.04 -0.104685 -0.06 0.04 -0.104685
-0.0559273 0.04 -0.100696 -0.06 0.04 -0.100696 -0.0559273 0.04 -0.0967069 -0.06
0.04 -0.0967069 -0.0559273 0.04 -0.0927179 -0.06 0.04 -0.0927179 -0.0559273 0.04
-0.088739 -0.06 0.04 -0.0887391 -0.0559273 0.04 -0.0847775 -0.06 0.04 -0.0847775
-0.0559273 0.04 -0.0809835 -0.06 0.04 -0.0809835 -0.0559273 0.04 -0.0773956 -0.06
0.04 -0.0773956 -0.0559273 0.04 -0.0739968 -0.06 0.04 -0.0739968 -0.0559273 0.04
-0.0707629 -0.06 0.04 -0.0707629 -0.0559273 0.04 -0.0676784 -0.06 0.04 -0.0676784
-0.0559273 0.04 -0.0647301 -0.06 0.04 -0.0647301 -0.0559273 0.04 -0.0619431 -0.06
0.04 -0.0619431 -0.0559273 0.04 -0.0593321 -0.06 0.04 -0.0593321 -0.0559273 0.04
-0.0568459 -0.06 0.04 -0.0568459 -0.0559273 0.04 -0.0544545 -0.06 0.04 -0.0544545
-0.0559273 0.04 -0.0521732 -0.06 0.04 -0.0521732 -0.0559273 0.04 -0.0500374 -0.06
0.04 -0.0500374 -0.0559273 0.04 -0.0480123 -0.06 0.04 -0.0480123 -0.0559273 0.04
-0.046084 -0.06 0.04 -0.046084 -0.0559273 0.04 -0.0442254 -0.06 0.04 -0.0442254
-0.0559273 0.04 -0.0424486 -0.06 0.04 -0.0424486 -0.0559273 0.04 -0.0407648 -0.06
0.04 -0.0407648 -0.0559273 0.04 -0.0391821 -0.06 0.04 -0.0391821 -0.0559273 0.04
-0.0376993 -0.06 0.04 -0.0376993 -0.0559273 0.04 -0.0362943 -0.06 0.04 -0.0362943
-0.0559273 0.04 -0.0349524 -0.06 0.04 -0.0349524 -0.0559273 0.04 -0.0336651 -0.06
0.04 -0.0336651 -0.0559273 0.04 -0.0324289 -0.06 0.04 -0.0324289 -0.0559273 0.04
-0.0312728 -0.06 0.04 -0.0312728 -0.0559273 0.04 -0.0301752 -0.06 0.04 -0.0301752
-0.0559273 0.04 -0.0291177 -0.06 0.04 -0.0291177 -0.0559273 0.04 -0.0281145 -0.06
0.04 -0.0281145 -0.0559273 0.04 -0.0271661 -0.06 0.04 -0.0271661 -0.0559273 0.04
-0.0262754 -0.06 0.04 -0.0262754 -0.0559273 0.04 -0.02543 -0.06 0.04 -0.02543
-0.0559273 0.04 -0.0246256 -0.06 0.04 -0.0246256 -0.0559273 0.04 -0.0238573 -0.06
0.04 -0.0238573 -0.0559273 0.04 -0.023094 -0.0559273 0.04 -0.023094 -0.06 0.04
-0.184464 -0.0519514 0.04 -0.188453 -0.0519514 0.04 -0.180475 -0.0519514 0.04 -0.176486
-0.0519514 0.04 -0.172497 -0.0519514 0.04 -0.168508 -0.0519514 0.04 -0.164519 -0.0519514
0.04 -0.16053 -0.0519514 0.04 -0.156541 -0.0519514 0.04 -0.152552 -0.0519514 0.04
-0.148563 -0.0519514 0.04 -0.144574 -0.0519514 0.04 -0.140586 -0.0519514 0.04 -0.136596
-0.0519514 0.04 -0.132607 -0.0519514 0.04 -0.128619 -0.0519514 0.04 -0.12463 -0.0519514
0.04 -0.120641 -0.0519514 0.04 -0.116652 -0.0519514 0.04 -0.112663 -0.0519514 0.04
-0.108674 -0.0519514 0.04 -0.104685 -0.0519514 0.04 -0.100696 -0.0519514 0.04 -0.0967069
-0.0519514 0.04 -0.0927179 -0.0519514 0.04 -0.088739 -0.0519514 0.04 -0.0847775 -0.0519514
0.04 -0.0809835 -0.0519514 0.04 -0.0773956 -0.0519514 0.04 -0.0739968 -0.0519514 0.04
-0.0707629 -0.0519514 0.04 -0.0676784 -0.0519514 0.04 -0.0647301 -0.0519514 0.04 -0.0619431
-0.0519514 0.04 -0.0593321 -0.0519514 0.04 -0.0568459 -0.0519514 0.04 -0.0544545 -0.0519514
0.04 -0.0521732 -0.0519514 0.04 -0.0500374 -0.0519514 0.04 -0.0480123 -0.0519514 0.04
-0.046084 -0.0519514 0.04 -0.0442254 -0.0519514 0.04 -0.0424486 -0.0519514 0.04 -0.0407648
-0.0519514 0.04 -0.0391821 -0.0519514 0.04 -0.0376993 -0.0519514 0.04 -0.0362943 -0.0519514
0.04 -0.0349524 -0.0519514 0.04 -0.0336651 -0.0519514 0.04 -0.0324289 -0.0519514 0.04
-0.0312728 -0.0519514 0.04 -0.0301752 -0.0519514 0.04 -0.0291177 -0.0519514 0.04 -0.0281145
-0.0519514 0.04 -0.0271661 -0.0519514 0.04 -0.0262754 -0.0519514 0.04 -0.02543 -0.0519514
0.04 -0.0246256 -0.0519514 0.04 -0.0238573 -0.0519514 0.04 -0.023094 -0.0519514 0.04
-0.184464 -0.0479754 0.04 -0.188453 -0.0479754 0.04 -0.180475 -0.0479754 0.04 -0.176486
-0.0479754 0.04 -0.172497 -0.0479754 0.04 -0.168508 -0.0479754 0.04 -0.164519 -0.0479754
0.04 -0.16053 -0.0479754 0.04 -0.156541 -0.0479754 0.04 -0.152552 -0.0479754 0.04
-0.148563 -0.0479754 0.04 -0.144574 -0.0479754 0.04 -0.140586 -0.0479754 0.04 -0.136596
-0.0479754 0.04 -0.132607 -0.0479754 0.04 -0.128619 -0.0479754 0.04 -0.12463 -0.0479754
0.04 -0.120641 -0.0479754 0.04 -0.116652 -0.0479754 0.04 -0.112663 -0.0479754 0.04
-0.108674 -0.0479754 0.04 -0.104685 -0.0479754 0.04 -0.100696 -0.0479754 0.04 -0.0967069
-0.0479754 0.04 -0.0927179 -0.0479754 0.04 -0.0887391 -0.0479754 0.04 -0.0847775 -0.0479754
0.04 -0.0809835 -0.0479754 0.04 -0.0773956 -0.0479754 0.04 -0.0739968 -0.0479754 0.04
-0.0707629 -0.0479754 0.04 -0.0676784 -0.0479754 0.04 -0.0647301 -0.0479754 0.04 -0.0619431
-0.0479754 0.04 -0.0593321 -0.0479754 0.04 -0.0568459 -0.0479754 0.04 -0.0544545 -0.0479754
0.04 -0.0521732 -0.0479754 0.04 -0.0500374 -0.0479754 0.04 -0.0480123 -0.0479754 0.04
-0.046084 -0.0479754 0.04 -0.0442254 -0.0479754 0.04 -0.0424486 -0.0479754 0.04 -0.0407648
-0.0479754 0.04 -0.0391821 -0.0479754 0.04 -0.0376993 -0.0479754 0.04 -0.0362943 -0.0479754
0.04 -0.0349524 -0.0479754 0.04 -0.0336651 -0.0479754 0.04 -0.0324289 -0.0479754 0.04
-0.0312728 -0.0479754 0.04 -0.0301752 -0.0479754 0.04 -0.0291177 -0.0479754 0.04 -0.0281145
-0.0479754 0.04 -0.0271661 -0.0479754 0.04 -0.0262754 -0.0479754 0.04 -0.02543 -0.0479754
0.04 -0.0246256 -0.0479754 0.04 -0.0238573 -0.0479754 0.04 -0.023094 -0.0479754 0.04
-0.184464 -0.0439994 0.04 -0.188453 -0.0439994 0.04 -0.180475 -0.0439994 0.04 -0.176486
-0.0439994 0.04 -0.172497 -0.0439994 0.04 -0.168508 -0.0439994 0.04 -0.164519 -0.0439994
0.04 -0.16053 -0.0439994 0.04 -0.156541 -0.0439994 0.04 -0.152552 -0.0439994 0.04
-0.148563 -0.0439994 0.04 -0.144574 -0.0439994 0.04 -0.140586 -0.0439994 0.04 -0.136596
-0.0439994 0.04 -0.132607 -0.0439994 0.04 -0.128619 -0.0439994 0.04 -0.12463 -0.0439994
0.04 -0.120641 -0.0439994 0.04 -0.116652 -0.0439994 0.04 -0.112663 -0.0439994 0.04
-0.108674 -0.0439994 0.04 -0.104685 -0.0439994 0.04 -0.100696 -0.0439994 0.04 -0.0967069
-0.0439994 0.04 -0.0927179 -0.0439994 0.04 -0.0887391 -0.0439994 0.04 -0.0847775 -0.0439994
0.04 -0.0809835 -0.0439994 0.04 -0.0773956 -0.0439994 0.04 -0.0739968 -0.0439994 0.04
-0.0707629 -0.0439994 0.04 -0.0676784 -0.0439994 0.04 -0.0647301 -0.0439994 0.04 -0.0619431
-0.0439994 0.04 -0.0593321 -0.0439994 0.04 -0.0568459 -0.0439994 0.04 -0.0544545 -0.0439994
0.04 -0.0521732 -0.0439994 0.04 -0.0500374 -0.0439994 0.04 -0.0480123 -0.0439994 0.04
-0.046084 -0.0439994 0.04 -0.0442254 -0.0439994 0.04 -0.0424486 -0.0439994 0.04 -0.0407648
-0.0439994 0.04 -0.0391821 -0.0439994 0.04 -0.0376993 -0.0439994 0.04 -0.0362943 -0.0439994
0.04 -0.0349524 -0.0439994 0.04 -0.0336651 -0.0439994 0.04 -0.0324289 -0.0439994 0.04
-0.0312728 -0.0439994 0.04 -0.0301752 -0.0439994 0.04 -0.0291177 -0.0439994 0.04 -0.0281145
-0.0439994 0.04 -0.0271661 -0.0439994 0.04 -0.0262754 -0.0439994 0.04 -0.02543 -0.0439994
0.04 -0.0246256 -0.0439994 0.04 -0.0238573 -0.0439994 0.04 -0.023094 -0.0439994 0.04
-0.184464 -0.0400235 0.04 -0.188453 -0.0400235 0.04 -0.180475 -0.0400235 0.04 -0.176486
-0.0400235 0.04 -0.172497 -0.0400235 0.04 -0.168508 -0.0400235 0.04 -0.164519 -0.0400235
0.04 -0.16053 -0.0400235 0.04 -0.156541 -0.0400235 0.04 -0.152552 -0.0400235 0.04
-0.148563 -0.0400235 0.04 -0.144574 -0.0400235 0.04 -0.140586 -0.0400235 0.04 -0.136596
-0.0400235 0.04 -0.132607 -0.0400235 0.04 -0.128619 -0.0400235 0.04 -0.12463 -0.0400235
0.04 -0.120641 -0.0400235 0.04 -0.116652 -0.0400235 0.04 -0.112663 -0.0400235 0.04
-0.108674 -0.0400235 0.04 -0.104685 -0.0400235 0.04 -0.100696 -0.0400235 0.04 -0.0967069
-0.0400235 0.04 -0.0927179 -0.0400235 0.04 -0.088739 -0.0400235 0.04 -0.0847775 -0.0400235
0.04 -0.0809835 -0.0400235 0.04 -0.0773956 -0.0400235 0.04 -0.0739968 -0.0400235 0.04
-0.0707629 -0.0400235 0.04 -0.0676784 -0.0400235 0.04 -0.0647301 -0.0400235 0.04 -0.0619431
-0.0400235 0.04 -0.0593321 -0.0400235 0.04 -0.0568459 -0.0400235 0.04 -0.0544545 -0.0400235
0.04 -0.0521732 -0.0400235 0.04 -0.0500374 -0.0400235 0.04 -0.0480123 -0.0400235 0.04
-0.046084 -0.0400235 0.04 -0.0442254 -0.0400235 0.04 -0.0424486 -0.0400235 0.04 -0.0407648
-0.0400235 0.04 -0.0391821 -0.0400235 0.04 -0.0376993 -0.0400235 0.04 -0.0362943 -0.0400235
0.04 -0.0349524 -0.0400235 0.04 -0.0336651 -0.0400235 0.04 -0.0324289 -0.0400235 0.04
-0.0312728 -0.0400235 0.04 -0.0301752 -0.0400235 0.04 -0.0291177 -0.0400235 0.04 -0.0281145
-0.0400235 0.04 -0.0271661 -0.0400235 0.04 -0.0262754 -0.0400235 0.04 -0.02543 -0.0400235
0.04 -0.0246256 -0.0400235 0.04 -0.0238573 -0.0400235 0.04 -0.023094 -0.0400235 0.04
-0.184464 -0.0360475 0.04 -0.188453 -0.0360475 0.04 -0.180475 -0.0360475 0.04 -0.176486
-0.0360475 0.04 -0.172497 -0.0360475 0.04 -0.168508 -0.0360475 0.04 -0.164519 -0.0360475
0.04 -0.16053 -0.0360475 0.04 -0.156541 -0.0360475 0.04 -0.152552 -0.0360475 0.04
-0.148563 -0.0360475 0.04 -0.144574 -0.0360475 0.04 -0.140586 -0.0360475 0.04 -0.136596
-0.0360475 0.04 -0.132607 -0.0360475 0.04 -0.128619 -0.0360475 0.04 -0.12463 -0.0360475
0.04 -0.120641 -0.0360475 0.04 -0.116652 -0.0360475 0.04 -0.112663 -0.0360475 0.04
-0.108674 -0.0360475 0.04 -0.104685 -0.0360475 0.04 -0.100696 -0.0360475 0.04 -0.0967069
[...]
POINT_DATA 17673
FIELD attributes 1
U 3 17673 float
0 0 0 -7.81782e-06 16.6 0.02079 0 16.6 0 0 8.25622
0 0 0 0 -1.32646e-05 16.5751 0.0324823 0 0 0
-1.71392e-05 16.5753 0.0394764 0 0 0 -2.01278e-05 16.5755 0.0444221 0
0 0 -2.26134e-05 16.5506 0.0478939 0 0 0 -2.45938e-05 16.5506
0.0503417 0 0 0 -2.59248e-05 16.5257 0.0521903 0 0 0
-2.63555e-05 16.4759 0.0536648 0 0 0 -2.546e-05 16.451 0.0548899 0
0 0 -2.25884e-05 16.4512 0.0559654 0 0 0 -1.7925e-05 16.4514
0.0568664 0 0 0 -1.04949e-05 16.4265 0.0576676 0 0 0
1.06415e-06 16.4016 0.0583941 0 0 0 1.6855e-05 16.3767 0.0589709 0
0 0 3.79368e-05 16.3518 0.0594476 0 0 0 6.60539e-05 16.3269
0.0597994 0 0 0 0.000101847 16.2771 0.0599264 0 0 0
0.000147346 16.2522 0.0598033 0 0 0 0.000205182 16.2273 0.0593801 0
0 0 0.000277264 16.2024 0.0585693 0 0 0 0.0003667 16.1775
0.0572583 0 0 0 0.000476768 16.1526 0.0552971 0 0 0
0.000612346 16.1528 0.0525604 0 0 0 0.00077984 16.1531 0.048885 0
0 0 0.00098584 16.1281 0.0440587 0 0 0 0.0012383 16.1033
0.0380368 0 0 0 0.00154067 16.1034 0.0309251 0 0 0
0.00189455 16.0785 0.0228592 0 0 0 0.00230082 16.0539 0.0139965 0
0 0 0.00276594 16.0539 0.00458707 0 0 0 0.00329476 16.054
-0.00497697 0 0 0 0.00388771 16.0541 -0.0146739 0 0 0
0.00454302 16.0792 -0.0247019 0 0 0 0.00525874 16.1293 -0.0352049 0
0 0 0.00603966 16.1544 -0.0463351 0 0 0 0.00688863 16.1544
-0.0580884 0 0 0 0.00780035 16.2047 -0.0702976 0 0 0
0.00876228 16.2546 -0.0828584 0 0 0 0.00977702 16.2795 -0.095737 0
0 0 0.0108502 16.3296 -0.108865 0 0 0 0.011989 16.3796
-0.122227 0 0 0 0.0131891 16.4297 -0.135627 0 0 0
0.014414 16.4923 -0.148866 0 0 0 0.0156512 16.5672 -0.161754 0
0 0 0.0169132 16.6298 -0.173965 0 0 0 0.0182253 16.6798
-0.185689 0 0 0 0.019575 16.7547 -0.197041 0 0 0
0.0209248 16.8172 -0.207456 0 0 0 0.0222875 16.8673 -0.21675 0
0 0 0.023662 16.9299 -0.225167 0 0 0 0.0250242 16.9799
-0.232708 0 0 0 0.0263742 17.0548 -0.239003 0 0 0
0.027749 17.1299 -0.243798 0 0 0 0.0291238 17.1799 -0.246844 0
0 0 0.0304485 17.2299 -0.248506 0 0 0 0.0317859 17.3051
-0.248642 0 0 0 0.0331232 17.3551 -0.246905 0 0 0
0.0344103 17.4051 -0.243724 0.0356979 17.4818 -0.238056 0 0 0 -5.9744e-06
16.6 0.0127875 0 16.6 0 -9.62859e-06 16.6 0.020625 -1.17341e-05 16.625
0.02595 -1.28328e-05 16.65 0.030125 -1.31641e-05 16.65 0.033375 -1.27153e-05 16.65 0.035925
-1.13581e-05 16.65 0.03805 -8.86283e-06 16.675 0.03995 -4.9287e-06 16.7 0.041675 7.83451e-07
16.725 0.0433 8.58721e-06 16.75 0.044825 1.91647e-05 16.75 0.04625 3.33177e-05 16.75
0.047625 5.16724e-05 16.75 0.048875 7.5276e-05 16.75 0.050025 0.000105281 16.75 0.0510749
0.000142863 16.75 0.0519 0.000189991 16.75 0.052475 0.000248809 16.75 0.052725 0.000321515
16.75 0.052525 0.000410479 16.75 0.0517625 0.000519206 16.75 0.050275 0.000653197 16.775
0.04785 0.000816737 16.8 0.0442742 0.00101704 16.8 0.0392855 0.00126279 16.8 0.0326995
0.00155735 16.8 0.0245879 0.00190129 16.8252 0.0150188 0.00229892 16.85 0.00399489 0.00275657
16.85 -0.00852628 0.0032742 16.85 -0.0225508 0.00385473 16.85 -0.0380971 0.00449636 16.85
-0.055066 0.00519595 16.9002 -0.0732515 0.00595825 16.95 -0.0929564 0.00678612 16.95 -0.114087
0.00767423 17.0002 -0.136225 0.00862136 17.05 -0.159037 0.00961495 17.0751 -0.182407 0.0106484
17.125 -0.206522 0.0117537 17.1751 -0.231401 0.0129289 17.2251 -0.256654 0.014129 17.2876
-0.281779 0.0153414 17.3375 -0.306527 0.0165787 17.4001 -0.330644 0.017841 17.45 -0.354265
0.0191409 17.5001 -0.377512 0.0204658 17.5875 -0.40026 0.0217912 17.6375 -0.422265 0.0231159
17.7001 -0.44351 0.0244531 17.75 -0.464006 0.0257782 17.8 -0.483758 0.0271032 17.9
-0.502757 0.0284282 17.95 -0.520756 0.0297155 18 -0.537879 0.0310154 18.075 -0.554128
0.0323028 18.125 -0.569627 0.0335525 18.175 -0.585374 0.0348154 18.2498 -0.599599 -5.05198e-06
16.6 0.0068725 0 16.6 0 -7.23425e-06 16.6 0.0126725 -7.58419e-06 16.6
0.01755 -6.65083e-06 16.6 0.0217 -4.62806e-06 16.6 0.0252 -1.52679e-06 16.6 0.028175
2.72504e-06 16.6 0.030775 8.3006e-06 16.625 0.033125 1.54297e-05 16.65 0.0353 2.44038e-05
16.65 0.03735 3.56567e-05 16.65 0.0392749 4.97579e-05 16.65 0.0410999 6.73856e-05 16.65
0.0428749 8.92535e-05 16.65 0.044525 0.000116525 16.675 0.046075 0.000150132 16.7 0.0475124
0.000191589 16.7 0.0487125 0.000242784 16.7 0.04965 0.000305369 16.7 0.0502125 0.000381966
16.7 0.0502375 0.0004747 16.7 0.0496 0.000586947 16.7 0.0481125 0.000723957 16.7
0.0454875 0.000891017 16.7 0.0414116 0.00109384 16.7 0.0355726 0.00134174 16.7 0.027669
0.00163919 16.7 0.0176978 0.00198539 16.7252 0.00569726 0.00238428 16.75 -0.0084362 0.00284069
16.75 -0.0248648 0.00335834 16.75 -0.0437505 0.00393886 16.75 -0.0651278 0.00457926 16.75
-0.0887876 0.0052801 16.8002 -0.114342 0.00603737 16.85 -0.141919 0.00685397 16.85 -0.171678
0.0077283 16.8876 -0.203196 0.00866294 16.9375 -0.235802 0.00963146 16.9751 -0.269421 0.0106462
17.025 -0.304283 0.0117414 17.0751 -0.340288 0.0128791 17.1251 -0.376917 0.0140542 17.1751
-0.413543 0.0152666 17.2251 -0.44979 0.0164913 17.275 -0.485278 0.0177285 17.325 -0.520147
0.0189909 17.4 -0.554518 0.0202783 17.475 -0.588516 0.0215911 17.525 -0.622023 0.0229033
17.575 -0.654515 0.0242155 17.625 -0.686135 0.0255406 17.7 -0.717012 0.026853 17.775
-0.747262 0.0281655 17.825 -0.776511 0.0294652 17.8875 -0.804633 0.0307526 17.9375 -0.832006
0.0320274 18 -0.85763 0.0332771 18.05 -0.883875 0.034515 18.0999 -0.911554 -4.48894e-06
16.6 0.00541374 0 16.6 0 -5.8906e-06 16.6 0.0103387 -5.1771e-06 16.6
0.014575 -2.87544e-06 16.6 0.01825 8.33896e-07 16.6 0.02145 5.91462e-06 16.6 0.024325
1.23937e-05 16.6 0.02695 2.03331e-05 16.6 0.0294 2.99347e-05 16.6 0.03175 4.14945e-05
16.6 0.034025 5.54213e-05 16.6 0.036225 7.22038e-05 16.6 0.0384 9.26321e-05 16.6
0.04055 0.000117345 16.6 0.042625 0.000147331 16.625 0.044625 0.00018379 16.65 0.0464625
0.000228125 16.65 0.0481 0.00028196 16.65 0.0494625 0.00034706 16.65 0.050375 0.000425796
16.65 0.0506875 0.000520545 16.65 0.050225 0.000634057 16.65 0.0487375 0.000771202 16.65
0.0459 0.000938398 16.65 0.0412989 0.0011401 16.65 0.0345347 0.00138575 16.65 0.0252508
0.00167956 16.65 0.0133989 0.0020219 16.65 -0.00102164 0.00241577 16.65 -0.0181378 0.00286467
16.65 -0.0381609 0.00337104 16.65 -0.0612869 0.00393277 16.65 -0.0875176 0.00454812 16.65
-0.116743 0.00521644 16.7002 -0.148819 0.00593494 16.75 -0.18368 0.00670898 16.75 -0.221693
0.0075395 16.7625 -0.262341 0.00842536 16.8126 -0.304694 0.00935266 16.85 -0.34881 0.0103336
16.875 -0.394793 0.011375 16.9251 -0.442426 0.0124539 16.9751 -0.491056 0.0135914 17.0251
-0.540183 0.0147663 17.0751 -0.589054 0.0159534 17.125 -0.637164 0.0171782 17.175 -0.684655
0.0184155 17.25 -0.731774 0.0196654 17.3 -0.778647 0.0209782 17.3501 -0.824907 0.0222902
17.4125 -0.869645 0.0235899 17.4625 -0.914386 0.0249274 17.55 -0.956014 0.0262523 17.6
-0.995767 0.0275772 17.65 -1.03727 0.0289019 17.725 -1.07551 0.0302017 17.775 -1.11063
0.0315015 17.85 -1.14401 0.0327761 17.9 -1.18 0.0340503 17.9495 -1.21611 -3.85389e-06
16.6 0.003925 0 16.6 0 -4.62671e-06 16.6 0.00776 -3.21644e-06 16.6
0.0113575 -7.81752e-08 16.6 0.014725 4.63849e-06 16.6 0.01785 1.09099e-05 16.6 0.0208
1.87469e-05 16.6 0.023625 2.81602e-05 16.6 0.026325 3.93104e-05 16.6 0.028975 5.25032e-05
16.6 0.031625 6.8115e-05 16.6 0.03425 8.64596e-05 16.6 0.0369 0.000108375 16.6
0.03955 0.000134563 16.6 0.0421625 0.000165749 16.6 0.0447375 0.000203245 16.6 0.0471749
0.000248254 16.6 0.049425 0.00030225 16.6 0.0514 0.000366934 16.6 0.0529375 0.000444477
16.6 0.0538375 0.000536981 16.6 0.0539001 0.00064737 16.6 0.0528376 0.000779641 16.6
0.0502626 0.000939578 16.6 0.0457489 0.00113302 16.6 0.0387846 0.00136736 16.6 0.0289233
0.00164563 16.6 0.0161128 0.00197071 16.6 0.000269568 0.0023458 16.6 -0.0188163 0.0027684
16.6 -0.0414568 0.00323345 16.6 -0.0680091 0.00374385 16.6 -0.0985816 0.00430414 16.6
-0.133111 0.00490995 16.6251 -0.171459 0.00556722 16.65 -0.213567 0.00628621 16.65 -0.259708
0.00706291 16.65 -0.309362 0.0078925 16.6751 -0.361334 0.00877984 16.7251 -0.415574 0.00971818
16.75 -0.472429 0.0107008 16.7751 -0.531688 0.0117409 16.8251 -0.592445 0.0128535 16.8751
-0.654199 0.0140032 16.9 -0.715943 0.0151778 16.9501 -0.7773 0.0163775 17 -0.838288
0.0175898 17.0501 -0.898656 0.0188522 17.1 -0.959779 0.0201649 17.1501 -1.01904 0.0214769
17.2125 -1.0774 0.0227891 17.2625 -1.13627 0.0241266 17.35 -1.19002 0.0254639 17.4
-1.24252 0.0268012 17.45 -1.29752 0.0281384 17.5125 -1.35001 0.0294507 17.5625 -1.39751
0.0307629 17.6375 -1.44251 0.0320625 17.6875 -1.49 0.0333733 17.7493 -1.53373 -3.48967e-06
16.6 0.00310374 0 16.6 0 -3.9285e-06 16.6 0.00628374 -2.13205e-06 16.6
0.00940749 1.48229e-06 16.6 0.0124725 6.79369e-06 16.6 0.01545 1.3769e-05 16.6 0.01835
2.23708e-05 16.6 0.02125 3.26061e-05 16.6 0.02415 4.45872e-05 16.6 0.027075 5.84975e-05
16.6 0.03005 7.47499e-05 16.6 0.0331 9.36903e-05 16.6 0.0362249 0.000115756 16.6
0.0394 0.000141862 16.6 0.0426125 0.000172574 16.6 0.0458375 0.000208806 16.6 0.049
0.000251986 16.6 0.0519875 0.000303173 16.6 0.054725 0.000363875 16.6 0.0570625 0.000436121
16.6 0.058775 0.000521361 16.6 0.0596501 0.000622408 16.6 0.0593251 0.000743545 16.6
0.0574001 0.000888465 16.6 0.0534366 0.00106226 16.6 0.0468097 0.0012735 16.5748 0.0370357
0.00152533 16.55 0.0239885 0.00181974 16.55 0.00751027 0.00215565 16.55 -0.0127171 0.00252693
16.55 -0.0371628 0.00293319 16.55 -0.0663921 0.00338101 16.55 -0.100706 0.00387624 16.55
-0.13975 0.00441708 16.55 -0.183094 0.00501059 16.55 -0.231077 0.00566703 16.55 -0.28397
0.00638367 16.55 -0.341255 0.00715575 16.55 -0.401723 0.0079843 16.5751 -0.464961 0.00886638
16.6 -0.531688 0.0098002 16.625 -0.601825 0.010804 16.675 -0.674334 0.0118778 16.7
-0.748464 0.0129901 16.7 -0.823208 0.0141397 16.7501 -0.897811 0.0153143 16.8 -0.972171
0.0165265 16.825 -1.04716 0.0177888 16.875 -1.12254 0.0190765 16.925 -1.19505 0.020376
16.975 -1.26754 0.0216882 17.025 -1.34002 0.0230381 17.1 -1.41003 0.0244004 17.15
-1.47878 0.0257376 17.2 -1.54628 0.0270873 17.25 -1.61252 0.028437 17.3 -1.67501
0.0297617 17.375 -1.73251 0.0310862 17.425 -1.79 0.032419 17.4987 -1.84412 -3.19318e-06
16.6 0.002368 0 16.6 0 -3.40971e-06 16.6 0.0049275 -1.42233e-06 16.6
0.0076075 2.3664e-06 16.6 0.010385 7.86673e-06 16.6 0.013225 1.50531e-05 16.6 0.016125
2.38633e-05 16.6 0.019125 3.4283e-05 16.6 0.02225 4.64245e-05 16.6 0.025475 6.02589e-05
16.6 0.028825 7.61611e-05 16.6 0.03235 9.46641e-05 16.6 0.036 0.000115868 16.6
0.039775 0.000140499 16.6 0.0437 0.000169111 16.6 0.0476999 0.000202355 16.6 0.051675
0.000241544 16.6 0.0555625 0.000287338 16.6 0.059275 0.000341094 16.6 0.0626375 0.000404241
16.6 0.0654375 0.000477878 16.6 0.0674375 0.000564004 16.6 0.0682626 0.000666629 16.6
0.0675126 0.000788738 16.575 0.0646743 0.000934727 16.55 0.0590976 0.00111395 16.5248 0.0502762
0.00132832 16.5 0.0379912 0.00157654 16.5 0.0219498 0.00185476 16.5 0.0015967 0.00216038
16.4749 -0.0237148 0.00249786 16.45 -0.0545219 0.0028731 16.45 -0.0910009 0.00329454 16.45
-0.13276 0.0037629 16.45 -0.179352 0.00428266 16.45 -0.231334 0.00486279 16.45 -0.28923
0.00550437 16.45 -0.352393 0.00620646 16.45 -0.419609 0.00696623 16.45 -0.490597 0.00778708
16.45 -0.565946 0.0086671 16.475 -0.645711 0.00961715 16.5 -0.729223 0.0106333 16.5
-0.815228 0.0116894 16.5 -0.902472 0.012789 16.525 -0.99032 0.0139386 16.55 -1.07843
0.0151383 16.575 -1.1688 0.016363 16.625 -1.25879 0.0176256 16.65 -1.34631 0.0189001
16.7001 -1.43504 0.0201997 16.75 -1.52378 0.0215621 16.7875 -1.61129 0.0229243 16.8375
-1.69628 0.0242616 16.875 -1.77878 0.0256237 16.925 -1.86002 0.0269858 16.975 -1.93752
0.028323 17.0375 -2.01002 0.02966 17.0875 -2.08375 0.0310149 17.1479 -2.15298 -3.2308e-06
16.6 0.00178676 0 16.6 0 -3.55937e-06 16.6 0.00384206 -1.71262e-06 16.6
0.00613814 1.9249e-06 16.6 0.00865551 7.25733e-06 16.6 0.0113592 1.42445e-05 16.6 0.0142492
2.2812e-05 16.6 0.0173492 3.29861e-05 16.6 0.0206493 4.47427e-05 16.6 0.0241744 5.79699e-05
16.6 0.0279496 7.28933e-05 16.6 0.0319373 8.99508e-05 16.6 0.0361376 0.000109443 16.6
0.0405879 0.000131694 16.6 0.0452632 0.000157092 16.6 0.050101 0.000186097 16.6 0.055014
0.000219496 16.6 0.059952 0.000257989 16.6 0.064815 0.00030236 16.6 0.0694155 0.000353554
16.6 0.0735537 0.000412321 16.6 0.0769919 0.000479645 16.6 0.0793801 0.000558121 16.575
0.0802809 0.000652104 16.525 0.0791689 0.000765494 16.5 0.0753934 0.000903482 16.5 0.0684038
0.00106802 16.5 0.0578707 0.00125676 16.4748 0.0431974 0.0014654 16.45 0.0236681 0.00169507
16.4248 -0.00122365 0.00195286 16.4 -0.031868 0.00224484 16.3748 -0.0684246 0.00257992 16.3499
-0.110646 0.00296203 16.3499 -0.158465 0.00339424 16.3499 -0.212196 0.003883 16.3248 -0.272595
0.0044332 16.2999 -0.339136 0.00504524 16.2999 -0.410353 0.0057187 16.2999 -0.486594 0.00645699
16.2999 -0.568444 0.00726193 16.2873 -0.655839 0.0081331 16.2623 -0.748233 0.0090717 16.2498
-0.844496 0.0100677 16.2498 -0.942995 0.0111134 16.2498 -1.0426 0.0122117 16.2498 -1.14384
0.0133488 16.2748 -1.24759 0.0145235 16.3123 -1.35384 0.0157486 16.3373 -1.45888 0.0170105
16.3748 -1.56387 0.01831 16.3998 -1.67011 0.0196349 16.4122 -1.77388 0.020972 16.4623
-1.87514 0.0223092 16.4998 -1.97515 0.0236712 16.5247 -2.07515 0.0250334 16.5747 -2.17015
0.026383 16.6247 -2.26017 0.0277199 16.6747 -2.35141 0.0290945 16.7216 -2.43706 -3.51353e-06
16.6 0.00124795 0 16.6 0 -4.19565e-06 16.6 0.0028335 -2.75922e-06 16.6
0.00476295 4.11801e-07 16.6 0.00702133 5.22346e-06 16.6 0.00958863 1.16033e-05 16.6 0.0124724
1.94521e-05 16.6 0.0156725 2.88462e-05 16.6 0.0191729 3.95362e-05 16.6 0.0230108 5.14854e-05
16.6 0.0271863 6.49702e-05 16.6 0.0316747 8.00275e-05 16.6 0.0365007 9.71573e-05 16.6
0.0416644 0.000116408 16.6 0.0471282 0.000137768 16.6 0.0528797 0.000161758 16.6 0.0588439
0.000188625 16.6 0.0649458 0.000218622 16.6 0.0711105 0.000252241 16.6 0.0771754 0.00028985
16.6 0.0829157 0.000331573 16.6 0.0881187 0.00037803 16.6 0.0924972 0.000430212 16.55
0.0955635 0.000491036 16.5 0.0967802 0.000564113 16.5 0.0955714 0.000652705 16.5 0.0914082
0.000758665 16.4747 0.0835297 0.00087962 16.4247 0.0711347 0.00101136 16.4 0.0537705 0.00115661
16.4 0.0310592 0.00132461 16.3748 0.00262859 0.00152197 16.3248 -0.0318083 0.00175617 16.2747
-0.072004 0.0020344 16.2498 -0.117966 0.00235966 16.2498 -0.17048 0.00273817 16.1996 -0.230248
0.0031768 16.1498 -0.296785 0.00367614 16.1246 -0.368873 0.00423937 16.0996 -0.446861 0.00486869
16.0996 -0.531835 0.00556585 16.0619 -0.623858 0.00633425 16.012 -0.722006 0.00717135 15.9996
-0.825526 0.00807333 15.9744 -0.932783 0.00903633 15.9493 -1.04227 0.0100569 15.9493 -1.15503
0.0111239 15.9493 -1.2713 0.0122421 15.9618 -1.39257 0.0134057 15.9615 -1.51513 0.0146175
15.9489 -1.6364 0.0158667 15.9614 -1.75891 0.0171414 15.9865 -1.88147 0.0184661 16.024
-2.00402 0.0197781 16.0488 -2.12533 0.0211025 16.0488 -2.24285 0.0224519 16.0737 -2.35663
0.023789 16.1237 -2.46919 0.0251259 16.1737 -2.58047 0.0265188 16.1943 -2.68605 -4.12002e-06
16.6 0.000740624 0 16.6 0 -5.45285e-06 16.6 0.00189154 -4.72211e-06 16.6
0.0034863 -2.30767e-06 16.6 0.00551726 1.665e-06 16.6 0.00796779 7.08065e-06 16.6 0.0108426
1.38027e-05 16.6 0.0141395 2.17939e-05 16.6 0.0178409 3.08699e-05 16.6 0.0219554 4.11326e-05
16.6 0.0265081 5.27672e-05 16.6 0.0315116 6.55746e-05 16.6 0.0369658 7.99153e-05 16.6
0.0428458 9.57644e-05 16.6 0.0491517 0.000112871 16.6 0.055871 0.0001316 16.6 0.0629287
0.000151822 16.6 0.0702752 0.000173287 16.6 0.0778349 0.000195857 16.6 0.0854834 0.0002194
16.6 0.092958 0.000243535 16.6 0.100084 0.000268111 16.6 0.106839 0.000292509 16.55
0.112496 0.000318854 16.5 0.116517 0.000349351 16.5 0.118669 0.00038469 16.5 0.117937
0.000428951 16.4496 0.1134 0.000477217 16.4 0.10441 0.000525873 16.4 0.0906162 0.000581567
16.3744 0.0718661 0.000651061 16.3245 0.0477156 0.000742399 16.2744 0.0177806 0.000864949 16.2244
-0.017855 0.00102475 16.1744 -0.0591408 0.00122597 16.1491 -0.107069 0.00147631 16.0989 -0.16239
0.00178139 16.0491 -0.22474 0.00214541 15.9989 -0.293517 0.0025735 15.9235 -0.369205 0.00306532
15.8981 -0.452503 0.00362614 15.848 -0.543982 0.00426067 15.7725 -0.643227 0.0049689 15.747
-0.749357 0.00574702 15.6969 -0.860863 0.00659004 15.647 -0.97699 0.0074957 15.6214 -1.09904
0.00846642 15.5959 -1.22548 0.00949732 15.5704 -1.3568 0.0105813 15.5203 -1.49321 0.0117096
15.4959 -1.63083 0.0128733 15.4826 -1.77101 0.0141013 15.4815 -1.91373 0.0153747 15.4937
-2.05766 0.0166487 15.4937 -2.20037 0.0179481 15.4937 -2.33812 0.019247 15.4937 -2.47465
0.0205588 15.5182 -2.60986 0.0218825 15.5426 -2.74382 0.0232684 15.5635 -2.87298 -4.87613e-06
16.6 0.000258273 0 16.6 0 -6.98486e-06 16.6 0.00101 -7.06494e-06 16.6
0.00230679 -5.54335e-06 16.6 0.00413863 -2.61163e-06 16.6 0.00649521 1.57516e-06 16.6 0.00937048
6.85558e-06 16.6 0.0127615 1.31318e-05 16.6 0.0166381 2.03683e-05 16.6 0.0210158 2.86388e-05
16.6 0.0259446 3.79571e-05 16.6 0.0314245 4.82898e-05 16.6 0.0374554 5.96308e-05 16.6
0.0440125 7.2106e-05 16.6 0.0511206 8.54645e-05 16.6 0.0587675 9.93214e-05 16.6 0.0669039
0.000113292 16.6 0.0754918 0.000126741 16.6 0.0844314 0.000138914 16.6 0.0936228 0.000149173
16.6 0.102944 0.000156629 16.6 0.11213 0.000160152 16.5745 0.121151 0.000158976 16.5245
0.129428 0.00015368 16.5 0.136462 0.000144131 16.5 0.142124 0.000130515 16.4742 0.145176
0.000115186 16.4242 0.144464 9.31058e-05 16.4 0.139506 6.23172e-05 16.3742 0.13032 2.96428e-05
16.3242 0.11682 1.68738e-06 16.2742 0.098365 -1.31096e-05 16.2242 0.0745923 -4.73548e-06 16.1741
0.045609 3.32002e-05 16.1242 0.0112482 0.000104807 16.0742 -0.0293366 0.000216427 15.9984 -0.0769395
0.000377104 15.9485 -0.131475 0.000593467 15.8983 -0.192749 0.000869629 15.7983 -0.261197 0.00120694
15.7227 -0.337636 0.00161033 15.6468 -0.423269 0.00208798 15.5468 -0.517773 0.00264155 15.4969
-0.620534 0.00326914 15.4467 -0.730426 0.00396963 15.3709 -0.846944 0.00473779 15.2951 -0.971615
0.0055749 15.2193 -1.10313 0.00648341 15.1434 -1.24134 0.00746106 15.0934 -1.38775 0.00849222
15.0675 -1.53915 0.00957498 14.9917 -1.69557 0.0107252 14.9417 -1.85583 0.0119083 14.9158
-2.01737 0.0131292 14.8899 -2.1802 0.0143962 14.8899 -2.34309 0.0156576 14.8899 -2.50471
0.0169441 14.8769 -2.66392 0.0182175 14.8511 -2.82309 0.0196007 14.8824 -2.97814 -5.69542e-06
16.6 -0.00018249 0 16.6 0 -8.60734e-06 16.6 0.000221085 -9.5195e-06 16.6
0.00126848 -8.94324e-06 16.6 0.00294465 -7.14508e-06 16.6 0.00522923 -4.32911e-06 16.6 0.00811293
-6.6872e-07 16.6 0.0115733 3.73768e-06 16.6 0.0156183 8.94292e-06 16.6 0.0202578 1.50625e-05
16.6 0.0254973 2.2147e-05 16.6 0.0313747 2.99933e-05 16.6 0.0379029 3.84775e-05 16.6
0.0450695 4.7847e-05 16.6 0.0528867 5.75961e-05 16.6 0.0613547 6.69738e-05 16.6 0.0704357
7.5221e-05 16.6 0.0801051 8.13322e-05 16.6 0.0902882 8.41731e-05 16.6 0.100898 8.26083e-05
16.6 0.111933 7.52563e-05 16.6 0.12307 6.07316e-05 16.55 0.134085 3.76479e-05 16.5
0.144852 4.60787e-06 16.5 0.154876 -3.91473e-05 16.5 0.163776 -9.2735e-05 16.4496 0.170445
-0.000158767 16.4 0.173462 -0.000243478 16.4 0.17261 -0.000344681 16.3496 0.168271 -0.000455878
16.3 0.160314 -0.000571064 16.2497 0.147991 -0.000682947 16.2 0.131027 -0.000781137 16.1496
0.109503 -0.000858626 16.0744 0.0833257 -0.000910455 16.0244 0.0516974 -0.000932305 15.9498 0.0136596
-0.000913606 15.8744 -0.0308628 -0.000844642 15.7988 -0.0818424 -0.000722408 15.6988 -0.139646 -0.000542886
15.5989 -0.205551 -0.000302655 15.4988 -0.280803 7.83341e-06 15.3988 -0.365306 0.000394597 15.3233
-0.458804 0.000858649 15.2477 -0.560665 0.00140056 15.1221 -0.67076 0.00201546 14.9966 -0.790008
0.00270546 14.8966 -0.919667 0.00347471 14.7966 -1.06001 0.00432043 14.721 -1.2103 0.00523695
14.6454 -1.36902 0.00621873 14.5454 -1.53531 0.00726474 14.4699 -1.70922 0.00836828 14.3943
-1.88816 0.00952693 14.3187 -2.07088 0.0107266 14.2931 -2.25608 0.011953 14.2675 -2.44135
0.0132147 14.2297 -2.62791 0.0144651 14.1797 -2.8157 0.0158693 14.186 -3.00131 -6.47414e-06
16.6 -0.00059017 0 16.6 0 -1.0141e-05 16.6 -0.000489976 -1.18828e-05 16.6
0.000351757 -1.22604e-05 16.6 0.00190742 -1.16188e-05 16.6 0.00414322 -1.02279e-05 16.6 0.0070346